ITEM: TIMESTEP
0
ITEM: NUMBER OF ATOMS
40
ITEM: BOX BOUNDS pp pp pp
0.0000000000000000e+00 8.9253610309999996e+00
0.0000000000000000e+00 5.1975179110000003e+00
0.0000000000000000e+00 9.5503985629999999e+00
ITEM: ATOMS id type v_vir_xx v_vir_yy v_vir_zz v_vir_xy v_vir_xz v_vir_yz
1 2      -0.852290299250      -1.090683663523      -1.440737317630       0.609928528387       0.967043718029      -0.943358975208
2 2      -0.852281808185      -1.090674517808      -1.440713701109      -0.609946462113      -0.967007204844      -0.943327364849
3 2      -2.388590435221      -2.858102321942      -2.259794724978      -0.429336682573      -0.284792185181       0.685449277485
4 2      -2.388581399943      -2.858158293649      -2.259881564075       0.429375362549       0.284834834784       0.685485298170
5 2      -1.194220535691      -0.925664895783      -0.857568304571      -0.375594682814       0.645665946491      -0.119976725059
6 2      -1.462561678430      -1.709741519518      -3.240440088799       0.439721966542      -0.542231940139      -1.136332886471
7 2      -1.462567237864      -1.709706727237      -3.240424543557      -0.439649713218       0.542154447287      -1.136360800374
8 2      -1.194193337838      -0.925667175202      -0.857474598219       0.375549236337      -0.645660347657      -0.120039294819
9 2      -2.385815401255      -2.857191960210      -2.256733474735       0.429443289543      -0.285523329138      -0.688074487462
10 2      -2.385862681840      -2.857178439022      -2.256620773652      -0.429386853998       0.285464406706      -0.688063812716
11 2      -0.857054714305      -1.096586643967      -1.445991028929      -0.613394441252       0.969236087705       0.939469807913
12 2      -0.857049138835      -1.096583740950      -1.446001627694       0.613425696386      -0.969248289395       0.939451574529
13 2      -1.188293737639      -0.927886976917      -0.857054765213      -0.375982996180      -0.643897256104       0.118088275696
14 2      -1.455763456473      -1.713012167913      -3.243392398526      -0.439691017508      -0.543595445599       1.134258245219
15 2      -1.455757492640      -1.713059120478      -3.243374500312       0.439702754616       0.543668728284       1.134270827734
16 2      -1.188288616023      -0.927860425131      -0.857023971847       0.375972785259       0.643922418838       0.118047997679
17 1       0.933249266258       1.673766685643       1.237598324181       0.410606725528       0.969499370854      -0.826297173395
18 1       0.793374905402       1.151569042024       1.402731906297      -0.390881529710      -1.006065606292      -0.503180587412
19 1       1.784807517067       1.308760590845       1.442184973478      -0.462611269964      -0.581037588314      -0.899651850523
20 1       2.606582932687       2.728687787823       3.214505427307      -0.128636227309      -0.542642575499      -0.953965523481
21 1       0.933210808854       1.673714086500       1.237563468187      -0.410628432577      -0.969481317789      -0.826268698734
22 1       2.278144417141       2.083846297638       2.258127150004      -0.090350057961      -0.113515918972      -0.324491216459
23 1       1.784850079183       1.308855026113       1.442164939367       0.462601370830       0.581049200310      -0.899652966921
24 1       2.606567060147       2.728700170537       3.214507761733       0.128634449340       0.542604300405      -0.953961476344
25 1       2.281711855122       2.082625485712       2.258733457911      -0.090634270007       0.112912783706       0.325596577523
26 1       0.930215143406       1.667123102963       1.233950938411      -0.408797044410       0.970127049601       0.827191991834
27 1       2.602750194607       2.723925536496       3.210876037019      -0.126907577901       0.542982164257       0.956781805202
28 1       1.785638037994       1.303536947881       1.439195074865      -0.463278233749       0.582330849185       0.896705513728
29 1       0.794648703839       1.154710927164       1.402888077339      -0.394193801220       1.006079843234       0.504256477334
30 1       0.930201086110       1.667082610688       1.233964030210       0.408745525720      -0.970124397699       0.827181017968
31 1       1.821310418496       2.644563187254       2.498924248016      -0.054257308567       0.154665458485      -0.057449191059
32 1       1.824781505954       2.646465960272       2.498964522143      -0.055706131980      -0.153263380308       0.057478187778
33 1       0.794642279871       1.154745557278       1.402884212753       0.394225735230      -1.006090585961       0.504279834589
34 1       2.278134093243       2.083830467116       2.258194856990       0.090354059461       0.113501753853      -0.324499672033
35 1       1.821340335118       2.644573334977       2.498939909060       0.054257468277      -0.154652724137      -0.057471144776
36 1       1.824818329119       2.646467811275       2.498979129792       0.055701174939       0.153234203230       0.057470449987
37 1       2.281752855666       2.082643068984       2.258826243772       0.090607287248      -0.112885147313       0.325578762230
38 1       0.793385498767       1.151526539214       1.402701596291       0.390895302480       1.006100544737      -0.503173905006
39 1       2.602729353511       2.723862813832       3.210872003500       0.126917246701      -0.542963671268       0.956770091568
40 1       1.785669747165       1.303542617594       1.439129002267       0.463312137075      -0.582323367365       0.896702095049
