ITEM: TIMESTEP
0
ITEM: NUMBER OF ATOMS
80
ITEM: BOX BOUNDS pp pp pp
0.0000000000000000e+00 9.4297664440000002e+00
0.0000000000000000e+00 9.4297664440000002e+00
0.0000000000000000e+00 9.4297664440000002e+00
ITEM: ATOMS id type x y z fx fy fz
1 2       7.072320000000       2.357440000000       2.357440000000       0.000103895848       0.000031065193       0.000076808307
2 2       7.072320000000       4.376130000000       4.714880000000       0.000071542343      -0.029194164426      -0.000002511617
3 2       0.000000000000       7.072320000000       0.338760000000      -0.000021928110       0.000066023959       0.029087162606
4 2       0.000000000000       2.357440000000       4.376130000000      -0.000047858717       0.000059813562      -0.029186799321
5 2       0.338760000000       0.000000000000       7.072320000000       0.029087162606      -0.000021928110       0.000066023959
6 2       0.338760000000       4.714880000000       2.357440000000       0.029085121217      -0.000028459427       0.000054280088
7 2       2.357440000000       4.376130000000       0.000000000000       0.000059813562      -0.029186799321      -0.000047858717
8 2       2.357440000000       7.072320000000       2.357440000000       0.000076808307       0.000103895848       0.000031065193
9 2       2.357440000000       2.357440000000       2.357440000000       0.000026666775       0.000026666775       0.000026666775
10 2       2.357440000000       2.357440000000       7.072320000000       0.000031065193       0.000076808307       0.000103895848
11 2       2.357440000000       0.338760000000       4.714880000000       0.000054280088       0.029085121217      -0.000028459427
12 2       4.376130000000       0.000000000000       2.357440000000      -0.029186799321      -0.000047858717       0.000059813562
13 2       4.376130000000       4.714880000000       7.072320000000      -0.029194164426      -0.000002511617       0.000071542343
14 2       4.714880000000       2.357440000000       0.338760000000      -0.000028459427       0.000054280088       0.029085121217
15 2       4.714880000000       7.072320000000       4.376130000000      -0.000002511617       0.000071542343      -0.029194164426
16 2       7.072320000000       0.338760000000       0.000000000000       0.000066023959       0.029087162606      -0.000021928110
17 2       2.357440000000       7.072320000000       7.072320000000       0.000033270837       0.000076825837       0.000083422885
18 2       2.357440000000       9.091010000000       0.000000000000       0.000034222684      -0.029136081167      -0.000011249995
19 2       4.714880000000       2.357440000000       5.053640000000       0.000008158401       0.000039738165       0.029082411517
20 2       4.714880000000       7.072320000000       9.091010000000      -0.000017781865       0.000086081039      -0.029143448667
21 2       5.053640000000       4.714880000000       2.357440000000       0.029082411517       0.000008158401       0.000039738165
22 2       5.053640000000       0.000000000000       7.072320000000       0.029084453693      -0.000037190066       0.000091604319
23 2       7.072320000000       9.091010000000       4.714880000000       0.000086081039      -0.029143448667      -0.000017781865
24 2       7.072320000000       2.357440000000       7.072320000000       0.000083422885       0.000033270837       0.000076825837
25 2       7.072320000000       7.072320000000       7.072320000000       0.000058154842       0.000058154842       0.000058154842
26 2       7.072320000000       7.072320000000       2.357440000000       0.000076825837       0.000083422885       0.000033270837
27 2       7.072320000000       5.053640000000       0.000000000000       0.000091604319       0.029084453693      -0.000037190066
28 2       9.091010000000       4.714880000000       7.072320000000      -0.029143448667      -0.000017781865       0.000086081039
29 2       9.091010000000       0.000000000000       2.357440000000      -0.029136081167      -0.000011249995       0.000034222684
30 2       0.000000000000       7.072320000000       5.053640000000      -0.000037190066       0.000091604319       0.029084453693
31 2       0.000000000000       2.357440000000       9.091010000000      -0.000011249995       0.000034222684      -0.029136081167
32 2       2.357440000000       5.053640000000       4.714880000000       0.000039738165       0.029082411517       0.000008158401
33 1       8.348910000000       5.764450000000       1.490340000000      -0.022870203035       0.017784204031       0.005450619540
34 1       8.348910000000       3.665320000000       3.224550000000      -0.022868971683      -0.017846612120      -0.005493279224
35 1       8.380200000000       1.490340000000       1.080860000000      -0.017797636829       0.005447934755       0.022864893278
36 1       8.380200000000       3.224550000000       5.795740000000      -0.017821546484      -0.005501574579       0.022886060541
37 1       1.049570000000       3.224550000000       1.080860000000       0.017730223785      -0.005515133370       0.022812725667
38 1       1.049570000000       1.490340000000       5.795740000000       0.017739804027       0.005453709737       0.022886301940
39 1       1.080860000000       8.380200000000       1.490340000000       0.022864893278      -0.017797636829       0.005447934755
40 1       1.080860000000       1.049570000000       3.224550000000       0.022812725667       0.017730223785      -0.005515133370
41 1       1.490340000000       5.795740000000       1.049570000000       0.005453709737       0.022886301940       0.017739804027
42 1       1.490340000000       3.634020000000       3.665320000000       0.005444654822      -0.022805202475      -0.017812602654
43 1       1.490340000000       1.080860000000       8.380200000000       0.005447934755       0.022864893278      -0.017797636829
44 1       1.490340000000       8.348910000000       5.764450000000       0.005450619540      -0.022870203035       0.017784204031
45 1       3.224550000000       3.634020000000       5.764450000000      -0.005517059338      -0.022754032294       0.017764521682
46 1       3.224550000000       1.080860000000       1.049570000000      -0.005515133370       0.022812725667       0.017730223785
47 1       3.224550000000       8.348910000000       3.665320000000      -0.005493279224      -0.022868971683      -0.017846612120
48 1       3.224550000000       5.795740000000       8.380200000000      -0.005501574579       0.022886060541      -0.017821546484
49 1       3.634020000000       3.665320000000       1.490340000000      -0.022805202475      -0.017812602654       0.005444654822
50 1       3.634020000000       5.764450000000       3.224550000000      -0.022754032294       0.017764521682      -0.005517059338
51 1       3.665320000000       1.490340000000       3.634020000000      -0.017812602654       0.005444654822      -0.022805202475
52 1       3.665320000000       3.224550000000       8.348910000000      -0.017846612120      -0.005493279224      -0.022868971683
53 1       5.764450000000       1.490340000000       8.348910000000       0.017784204031       0.005450619540      -0.022870203035
54 1       5.764450000000       3.224550000000       3.634020000000       0.017764521682      -0.005517059338      -0.022754032294
55 1       5.795740000000       8.380200000000       3.224550000000       0.022886060541      -0.017821546484      -0.005501574579
56 1       5.795740000000       1.049570000000       1.490340000000       0.022886301940       0.017739804027       0.005453709737
57 1       3.634020000000       1.049570000000       6.205220000000      -0.022767903437       0.017730347368       0.005465662280
58 1       3.634020000000       8.380200000000       7.939430000000      -0.022774050761      -0.017802960604      -0.005494191355
59 1       3.665320000000       6.205220000000       5.795740000000      -0.017854700588       0.005427416967       0.022921381958
60 1       3.665320000000       7.939430000000       1.080860000000      -0.017835968177      -0.005469485572       0.022854182172
61 1       5.764450000000       7.939430000000       5.795740000000       0.017797487220      -0.005480478469       0.022876586926
62 1       5.764450000000       6.205220000000       1.080860000000       0.017782703188       0.005446181056       0.022849031526
63 1       5.795740000000       3.665320000000       6.205220000000       0.022921381958      -0.017854700588       0.005427416967
64 1       5.795740000000       5.764450000000       7.939430000000       0.022876586926       0.017797487220      -0.005480478469
65 1       6.205220000000       1.080860000000       5.764450000000       0.005446181056       0.022849031526       0.017782703188
66 1       6.205220000000       8.348910000000       8.380200000000       0.005447103029      -0.022883841044      -0.017831780629
67 1       6.205220000000       5.795740000000       3.665320000000       0.005427416967       0.022921381958      -0.017854700588
68 1       6.205220000000       3.634020000000       1.049570000000       0.005465662280      -0.022767903437       0.017730347367
69 1       7.939430000000       8.348910000000       1.049570000000      -0.005494956248      -0.022838054093       0.017755236829
70 1       7.939430000000       5.795740000000       5.764450000000      -0.005480478469       0.022876586926       0.017797487220
71 1       7.939430000000       3.634020000000       8.380200000000      -0.005494191355      -0.022774050761      -0.017802960604
72 1       7.939430000000       1.080860000000       3.665320000000      -0.005469485572       0.022854182172      -0.017835968177
73 1       8.348910000000       8.380200000000       6.205220000000      -0.022883841044      -0.017831780629       0.005447103029
74 1       8.348910000000       1.049570000000       7.939430000000      -0.022838054093       0.017755236829      -0.005494956248
75 1       8.380200000000       6.205220000000       8.348910000000      -0.017831780629       0.005447103029      -0.022883841044
76 1       8.380200000000       7.939430000000       3.634020000000      -0.017802960604      -0.005494191355      -0.022774050761
77 1       1.049570000000       6.205220000000       3.634020000000       0.017730347368       0.005465662280      -0.022767903437
78 1       1.049570000000       7.939430000000       8.348910000000       0.017755236829      -0.005494956248      -0.022838054093
79 1       1.080860000000       3.665320000000       7.939430000000       0.022854182172      -0.017835968177      -0.005469485572
80 1       1.080860000000       5.764450000000       6.205220000000       0.022849031526       0.017782703188       0.005446181056
