ITEM: TIMESTEP
0
ITEM: NUMBER OF ATOMS
80
ITEM: BOX BOUNDS pp pp pp
0.0000000000000000e+00 9.4297664440000002e+00
0.0000000000000000e+00 9.4297664440000002e+00
0.0000000000000000e+00 9.4297664440000002e+00
ITEM: ATOMS id type v_vir_xx v_vir_yy v_vir_zz v_vir_xy v_vir_xz v_vir_yz
1 2      -5.384268536555      -5.384324896471      -5.384310939595      -0.984189467950       0.984200092819       0.984214819011
2 2      -4.590068114214      -4.454852264786      -4.622573038205       0.000025146780       0.592568535421       0.000035408526
3 2      -4.622483950982      -4.589991073870      -4.454642868491       0.592607648059      -0.000006156881      -0.000013122096
4 2      -4.622527893513      -4.590086308557      -4.454838299926      -0.592591073329      -0.000007866470      -0.000007868648
5 2      -4.454642868491      -4.622483950982      -4.589991073870      -0.000006156881      -0.000013122096       0.592607648059
6 2      -4.454710579511      -4.622525269183      -4.590087036195      -0.000021384590       0.000019881974      -0.592595044588
7 2      -4.590086308557      -4.454838299926      -4.622527893513      -0.000007868648      -0.592591073329      -0.000007866470
8 2      -5.384310939595      -5.384268536555      -5.384324896471       0.984200092819       0.984214819011      -0.984189467951
9 2      -5.384338347918      -5.384338347918      -5.384338347918      -0.984206671203      -0.984206671203      -0.984206671203
10 2      -5.384324896471      -5.384310939595      -5.384268536555       0.984214819011      -0.984189467950       0.984200092819
11 2      -4.590087036195      -4.454710579511      -4.622525269183       0.000019881974      -0.592595044588      -0.000021384590
12 2      -4.454838299926      -4.622527893513      -4.590086308557      -0.000007866470      -0.000007868648      -0.592591073329
13 2      -4.454852264786      -4.622573038205      -4.590068114214       0.000035408526       0.000025146780       0.592568535421
14 2      -4.622525269183      -4.590087036195      -4.454710579511      -0.592595044588      -0.000021384590       0.000019881974
15 2      -4.622573038205      -4.590068114214      -4.454852264786       0.592568535421       0.000035408526       0.000025146780
16 2      -4.589991073870      -4.454642868491      -4.622483950982      -0.000013122096       0.592607648059      -0.000006156881
17 2      -5.384297473321      -5.384241123282      -5.384255085326      -0.984208246552       0.984197610340       0.984182882105
18 2      -4.590053061904      -4.454722146419      -4.622469084927       0.000002089746       0.592607025529       0.000005936643
19 2      -4.622541570294      -4.590111231053      -4.454698228944       0.592613517488      -0.000035189695      -0.000014111308
20 2      -4.622514233117      -4.590034822563      -4.454736110530      -0.592584468222       0.000021159889      -0.000008849311
21 2      -4.454698228944      -4.622541570294      -4.590111231053      -0.000035189695      -0.000014111308       0.592613517488
22 2      -4.454630513435      -4.622500252525      -4.590015253840       0.000008082758      -0.000003170814      -0.592626114921
23 2      -4.590034822563      -4.454736110530      -4.622514233117      -0.000008849311      -0.592584468222       0.000021159889
24 2      -5.384255085326      -5.384297473321      -5.384241123282       0.984197610340       0.984182882105      -0.984208246552
25 2      -5.384227655740      -5.384227655740      -5.384227655740      -0.984191051636      -0.984191051636      -0.984191051636
26 2      -5.384241123282      -5.384255085326      -5.384297473321       0.984182882105      -0.984208246552       0.984197610340
27 2      -4.590015253840      -4.454630513435      -4.622500252525      -0.000003170814      -0.592626114921       0.000008082758
28 2      -4.454736110530      -4.622514233117      -4.590034822563       0.000021159889      -0.000008849311      -0.592584468222
29 2      -4.454722146419      -4.622469084927      -4.590053061904       0.000005936643       0.000002089746       0.592607025529
30 2      -4.622500252525      -4.590015253840      -4.454630513435      -0.592626114921       0.000008082758      -0.000003170814
31 2      -4.622469084927      -4.590053061904      -4.454722146419       0.592607025529       0.000005936643       0.000002089746
32 2      -4.590111231053      -4.454698228944      -4.622541570294      -0.000014111308       0.592613517488      -0.000035189695
33 1       3.477902175065       3.396688917717       2.945692468827      -0.367455534725       0.701992529836       0.271737703526
34 1       3.477888452758       3.396679303645       2.945703350310       0.367459075344      -0.702008293483       0.271750563909
35 1       3.396684437159       2.945706270549       3.477881605523      -0.271733142556      -0.367440422005      -0.701998609416
36 1       3.396696690711       2.945712340292       3.477895553209       0.271754215193      -0.367447077219       0.702005458498
37 1       3.396698771569       2.945716952656       3.477893986813      -0.271749659925       0.367455769287       0.702021498011
38 1       3.396702723261       2.945704077419       3.477890218264       0.271744485204       0.367449914247      -0.701985679285
39 1       3.477881605523       3.396684437159       2.945706270549      -0.367440422005      -0.701998609416      -0.271733142556
40 1       3.477893986813       3.396698771569       2.945716952656       0.367455769287       0.702021498011      -0.271749659925
41 1       2.945704077419       3.477890218264       3.396702723261      -0.701985679285       0.271744485204       0.367449914247
42 1       2.945713109966       3.477865507421       3.396676603288       0.702015514336      -0.271725756856       0.367468122204
43 1       2.945706270549       3.477881605523       3.396684437159      -0.701998609416      -0.271733142556      -0.367440422005
44 1       2.945692468827       3.477902175065       3.396688917717       0.701992529836       0.271737703526      -0.367455534725
45 1       2.945721166629       3.477896941101       3.396694540211      -0.702042410770      -0.271739135114      -0.367477091382
46 1       2.945716952656       3.477893986813       3.396698771569       0.702021498011      -0.271749659925       0.367455769287
47 1       2.945703350310       3.477888452758       3.396679303645      -0.702008293483       0.271750563909       0.367459075344
48 1       2.945712340292       3.477895553209       3.396696690711       0.702005458498       0.271754215193      -0.367447077219
49 1       3.477865507421       3.396676603288       2.945713109966       0.367468122204       0.702015514336      -0.271725756856
50 1       3.477896941101       3.396694540211       2.945721166629      -0.367477091382      -0.702042410770      -0.271739135114
51 1       3.396676603288       2.945713109966       3.477865507421      -0.271725756856       0.367468122204       0.702015514336
52 1       3.396679303645       2.945703350310       3.477888452758       0.271750563909       0.367459075344      -0.702008293483
53 1       3.396688917717       2.945692468827       3.477902175065       0.271737703526      -0.367455534725       0.701992529836
54 1       3.396694540211       2.945721166629       3.477896941101      -0.271739135114      -0.367477091382      -0.702042410770
55 1       3.477895553209       3.396696690711       2.945712340292      -0.367447077219       0.702005458498       0.271754215193
56 1       3.477890218264       3.396702723261       2.945704077419       0.367449914247      -0.701985679285       0.271744485204
57 1       3.477883165199       3.396687887289       2.945711116956      -0.367468713277       0.702038737903       0.271749444461
58 1       3.477871488891       3.396672733144       2.945708259811       0.367471406624      -0.702035320307       0.271746722241
59 1       3.396704482490       2.945727549707       3.477893237423      -0.271763216355      -0.367439773404      -0.701991663363
60 1       3.396691436154       2.945729348290       3.477880009203       0.271755941918      -0.367451173911       0.702004278783
61 1       3.396713302957       2.945724517090       3.477907672507      -0.271764148084       0.367454277386       0.701995361809
62 1       3.396710165338       2.945729545970       3.477910735052       0.271755527923       0.367442090461      -0.702011708915
63 1       3.477893237423       3.396704482491       2.945727549707      -0.367439773404      -0.701991663363      -0.271763216355
64 1       3.477907672507       3.396713302957       2.945724517090       0.367454277386       0.701995361809      -0.271764148084
65 1       2.945729545970       3.477910735052       3.396710165338      -0.702011708915       0.271755527923       0.367442090461
66 1       2.945690648004       3.477893731919       3.396676238913       0.702008637181      -0.271757733919       0.367444315012
67 1       2.945727549707       3.477893237423       3.396704482490      -0.701991663363      -0.271763216355      -0.367439773404
68 1       2.945711116956       3.477883165199       3.396687887289       0.702038737903       0.271749444461      -0.367468713277
69 1       2.945690227423       3.477889105528       3.396681460510      -0.702008328899      -0.271761804356      -0.367465204694
70 1       2.945724517090       3.477907672507       3.396713302957       0.701995361809      -0.271764148084       0.367454277386
71 1       2.945708259811       3.477871488891       3.396672733144      -0.702035320307       0.271746722241       0.367471406624
72 1       2.945729348290       3.477880009203       3.396691436154       0.702004278783       0.271755941918      -0.367451173911
73 1       3.477893731919       3.396676238913       2.945690648004       0.367444315012       0.702008637181      -0.271757733919
74 1       3.477889105528       3.396681460510       2.945690227423      -0.367465204694      -0.702008328899      -0.271761804356
75 1       3.396676238913       2.945690648004       3.477893731919      -0.271757733919       0.367444315012       0.702008637181
76 1       3.396672733144       2.945708259811       3.477871488891       0.271746722241       0.367471406624      -0.702035320307
77 1       3.396687887289       2.945711116956       3.477883165199       0.271749444461      -0.367468713277       0.702038737903
78 1       3.396681460510       2.945690227423       3.477889105528      -0.271761804356      -0.367465204694      -0.702008328899
79 1       3.477880009203       3.396691436154       2.945729348290      -0.367451173911       0.702004278783       0.271755941918
80 1       3.477910735052       3.396710165338       2.945729545970       0.367442090461      -0.702011708915       0.271755527923
