80
Config_type=bulk_delta_phase Weight=1.0 Lattice="9.429766444 0.000000000 0.000000000 0.000000000 9.429766444 0.000000000 0.000000000 0.000000000 9.429766444" Energy=-680.20959160 Virial="-5.37765 0.00003 0.00006 0.00003 -5.37761 -0.00001 0.00006 -0.00001 -5.37771" pbc="T T T" Properties=species:S:1:pos:R:3:forces:R:3
Ga	      7.07232      2.35744      2.35744         0.000126      0.000035      0.000074
Ga	      7.07232      4.37613      4.71488         0.000098      0.013471      0.000020
Ga	      0.00000      7.07232      0.33876        -0.000003      0.000090     -0.013616
Ga	      0.00000      2.35744      4.37613        -0.000040      0.000065      0.013489
Ga	      0.33876      0.00000      7.07232        -0.013614     -0.000005      0.000090
Ga	      0.33876      4.71488      2.35744        -0.013615     -0.000018      0.000055
Ga	      2.35744      4.37613      0.00000         0.000062      0.013491     -0.000039
Ga	      2.35744      7.07232      2.35744         0.000075      0.000126      0.000040
Ga	      2.35744      2.35744      2.35744         0.000032      0.000032      0.000033
Ga	      2.35744      2.35744      7.07232         0.000039      0.000076      0.000126
Ga	      2.35744      0.33876      4.71488         0.000053     -0.013613     -0.000015
Ga	      4.37613      0.00000      2.35744         0.013487     -0.000038      0.000061
Ga	      4.37613      4.71488      7.07232         0.013470      0.000015      0.000099
Ga	      4.71488      2.35744      0.33876        -0.000017      0.000051     -0.013619
Ga	      4.71488      7.07232      4.37613         0.000015      0.000100      0.013475
Ga	      7.07232      0.33876      0.00000         0.000087     -0.013613     -0.000012
Ga	      2.35744      7.07232      7.07232         0.000040      0.000104      0.000109
Ga	      2.35744      9.09101      0.00000         0.000038      0.013543     -0.000004
Ga	      4.71488      2.35744      5.05364         0.000021      0.000042     -0.013618
Ga	      4.71488      7.07232      9.09101        -0.000009      0.000107      0.013520
Ga	      5.05364      4.71488      2.35744        -0.013624      0.000019      0.000048
Ga	      5.05364      0.00000      7.07232        -0.013620     -0.000036      0.000115
Ga	      7.07232      9.09101      4.71488         0.000103      0.013523     -0.000010
Ga	      7.07232      2.35744      7.07232         0.000107      0.000039      0.000102
Ga	      7.07232      7.07232      7.07232         0.000085      0.000087      0.000088
Ga	      7.07232      7.07232      2.35744         0.000103      0.000112      0.000043
Ga	      7.07232      5.05364      0.00000         0.000111     -0.013622     -0.000040
Ga	      9.09101      4.71488      7.07232         0.013522     -0.000013      0.000106
Ga	      9.09101      0.00000      2.35744         0.013542     -0.000003      0.000038
Ga	      0.00000      7.07232      5.05364        -0.000038      0.000116     -0.013615
Ga	      0.00000      2.35744      9.09101        -0.000004      0.000036      0.013539
Ga	      2.35744      5.05364      4.71488         0.000048     -0.013621      0.000019
O	      8.34891      5.76445      1.49034         0.006631     -0.000417      0.005934
O	      8.34891      3.66532      3.22455         0.006603      0.000380     -0.006009
O	      8.38020      1.49034      1.08086         0.000395      0.005932     -0.006640
O	      8.38020      3.22455      5.79574         0.000384     -0.005990     -0.006600
O	      1.04957      3.22455      1.08086        -0.000496     -0.006029     -0.006674
O	      1.04957      1.49034      5.79574        -0.000460      0.005928     -0.006590
O	      1.08086      8.38020      1.49034        -0.006639      0.000387      0.005925
O	      1.08086      1.04957      3.22455        -0.006678     -0.000484     -0.006030
O	      1.49034      5.79574      1.04957         0.005912     -0.006590     -0.000452
O	      1.49034      3.63402      3.66532         0.005951      0.006725      0.000410
O	      1.49034      1.08086      8.38020         0.005926     -0.006638      0.000396
O	      1.49034      8.34891      5.76445         0.005911      0.006605     -0.000416
O	      3.22455      3.63402      5.76445        -0.006021      0.006766     -0.000446
O	      3.22455      1.08086      1.04957        -0.006007     -0.006681     -0.000470
O	      3.22455      8.34891      3.66532        -0.005993      0.006613      0.000362
O	      3.22455      5.79574      8.38020        -0.005986     -0.006611      0.000358
O	      3.63402      3.66532      1.49034         0.006727      0.000393      0.005944
O	      3.63402      5.76445      3.22455         0.006734     -0.000448     -0.006003
O	      3.66532      1.49034      3.63402         0.000414      0.005935      0.006691
O	      3.66532      3.22455      8.34891         0.000394     -0.006004      0.006597
O	      5.76445      1.49034      8.34891        -0.000423      0.005943      0.006642
O	      5.76445      3.22455      3.63402        -0.000448     -0.006009      0.006730
O	      5.79574      8.38020      3.22455        -0.006610      0.000386     -0.005995
O	      5.79574      1.04957      1.49034        -0.006610     -0.000451      0.005925
O	      3.63402      1.04957      6.20522         0.006721     -0.000472      0.005952
O	      3.63402      8.38020      7.93943         0.006711      0.000406     -0.005996
O	      3.66532      6.20522      5.79574         0.000351      0.005879     -0.006579
O	      3.66532      7.93943      1.08086         0.000384     -0.005973     -0.006633
O	      5.76445      7.93943      5.79574        -0.000404     -0.005987     -0.006632
O	      5.76445      6.20522      1.08086        -0.000439      0.005917     -0.006637
O	      5.79574      3.66532      6.20522        -0.006590      0.000380      0.005914
O	      5.79574      5.76445      7.93943        -0.006631     -0.000425     -0.005990
O	      6.20522      1.08086      5.76445         0.005935     -0.006646     -0.000448
O	      6.20522      8.34891      8.38020         0.005950      0.006602      0.000400
O	      6.20522      5.79574      3.66532         0.005897     -0.006588      0.000358
O	      6.20522      3.63402      1.04957         0.005939      0.006719     -0.000469
O	      7.93943      8.34891      1.04957        -0.005999      0.006645     -0.000473
O	      7.93943      5.79574      5.76445        -0.005957     -0.006611     -0.000413
O	      7.93943      3.63402      8.38020        -0.005989      0.006719      0.000404
O	      7.93943      1.08086      3.66532        -0.005993     -0.006652      0.000384
O	      8.34891      8.38020      6.20522         0.006615      0.000376      0.005922
O	      8.34891      1.04957      7.93943         0.006644     -0.000466     -0.005995
O	      8.38020      6.20522      8.34891         0.000399      0.005944      0.006599
O	      8.38020      7.93943      3.63402         0.000410     -0.006003      0.006741
O	      1.04957      6.20522      3.63402        -0.000474      0.005945      0.006749
O	      1.04957      7.93943      8.34891        -0.000473     -0.006007      0.006638
O	      1.08086      3.66532      7.93943        -0.006657      0.000380     -0.005993
O	      1.08086      5.76445      6.20522        -0.006644     -0.000422      0.005904
