ITEM: TIMESTEP
0
ITEM: NUMBER OF ATOMS
40
ITEM: BOX BOUNDS pp pp pp
0.0000000000000000e+00 8.7317141449999998e+00
0.0000000000000000e+00 5.0847512500000001e+00
0.0000000000000000e+00 9.3431907049999996e+00
ITEM: ATOMS id type c_pe_atom
1 2      -4.640466948099
2 2      -4.640458968535
3 2      -4.221224238373
4 2      -4.221220696208
5 2      -4.778349796490
6 2      -4.582800254721
7 2      -4.582807742137
8 2      -4.778364542856
9 2      -4.220994241655
10 2      -4.220993010034
11 2      -4.639789968084
12 2      -4.639790447732
13 2      -4.779286618310
14 2      -4.583005719121
15 2      -4.583008083168
16 2      -4.779295738316
17 1     -11.307116762064
18 1     -11.290604928261
19 1     -11.224374227172
20 1     -10.674337397962
21 1     -11.307122074883
22 1     -11.202202598531
23 1     -11.224377307634
24 1     -10.674335816746
25 1     -11.202066093566
26 1     -11.306770219231
27 1     -10.673971492536
28 1     -11.224357271416
29 1     -11.290980905927
30 1     -11.306768591791
31 1     -11.144932464355
32 1     -11.144873058059
33 1     -11.290974566004
34 1     -11.202195848417
35 1     -11.144928141123
36 1     -11.144869244474
37 1     -11.202057923462
38 1     -11.290602758373
39 1     -10.673971445423
40 1     -11.224355788214
