40
Config_type=bulk_kappa_phase Weight=1.0 Lattice="8.731714145 0.000000000 0.000000000 0.000000000 5.084751250 0.000000000 0.000000000 0.000000000 9.343190705" Energy=-340.36493280 Virial="11.29794 0.00172 0.00441 0.00172 11.99692 0.00924 0.00441 0.00924 10.95037" pbc="T T T" Properties=species:S:1:pos:R:3:forces:R:3
Ga	      1.37185      1.57150      8.29327        -0.001314     -0.003176      0.004806
Ga	      3.10220      4.11387      8.29327         0.002229     -0.004415      0.005045
Ga	      5.74704      0.90174      7.46210        -0.002601      0.018771     -0.012713
Ga	      7.45872      3.44411      7.46211         0.003561      0.018276     -0.013785
Ga	      4.69775      3.44362      5.57156        -0.008852      0.002927     -0.000296
Ga	      1.46626      3.49245      5.69513        -0.005444     -0.015919     -0.007288
Ga	      3.00778      0.95008      5.69512         0.004159     -0.014618     -0.007290
Ga	      8.50802      0.90124      5.57156         0.006421      0.002203      0.000587
Ga	      1.38112      1.64038      2.79055        -0.002233     -0.020655     -0.012039
Ga	      3.09294      4.18276      2.79055         0.003207     -0.020248     -0.013204
Ga	      5.73716      0.97133      3.62168        -0.001088      0.003062      0.006151
Ga	      7.46861      3.51371      3.62168         0.000879      0.003613      0.006078
Ga	      4.14264      1.64144      0.90018         0.008355     -0.001964     -0.000761
Ga	      5.83186      4.13479      1.02325        -0.002225      0.016820     -0.005672
Ga	      7.37391      1.59242      1.02325         0.000791      0.014167     -0.004649
Ga	      0.33141      4.18382      0.90019        -0.008748     -0.002342      0.000167
O	      7.29355      1.77116      4.40857        -0.008851      0.004762      0.013419
O	      0.03301      0.77070      0.03203        -0.008370     -0.008501     -0.006929
O	      7.32736      0.10043      6.90464        -0.009143      0.006085     -0.001329
O	      7.25858      4.94926      2.12588        -0.002918      0.000565      0.007657
O	      5.91221      4.31353      4.40857         0.009707      0.005501      0.013807
O	      7.39815      3.32717      9.32846         0.004322      0.002346     -0.001505
O	      5.87840      2.64281      6.90464         0.010111      0.005436     -0.001109
O	      5.94719      2.40688      2.12588         0.002811      0.000489      0.006775
O	      1.44148      1.75741      4.65701        -0.004956     -0.000736     -0.001945
O	      2.92814      0.77160      9.08032        -0.009166     -0.004971      0.013870
O	      1.58234      0.13484      6.79811         0.000866     -0.000284      0.007701
O	      1.51272      4.98396      2.23312         0.008307     -0.003084     -0.000929
O	      0.07559      4.31453      4.70366         0.008656      0.006578     -0.006532
O	      1.54591      3.31398      9.08032         0.009758     -0.005843      0.014540
O	      0.15735      2.42321      6.85523         0.002733      0.008427      0.001887
O	      8.68236      2.66124      2.18387        -0.003539     -0.008027      0.001406
O	      4.39846      1.77216      4.70366        -0.008059      0.006128     -0.006230
O	      5.80761      0.78479      9.32847        -0.004591      0.001640     -0.001858
O	      4.31669      4.96558      6.85523        -0.002694      0.008268      0.002425
O	      4.52341      0.11886      2.18387         0.003785     -0.007937      0.001332
O	      3.03257      4.29979      4.65701         0.004052     -0.001856     -0.002017
O	      4.44104      3.31308      0.03203         0.008076     -0.008548     -0.006430
O	      2.89170      2.67721      6.79812        -0.000756     -0.000418      0.007733
O	      2.96134      2.44158      2.23312        -0.007237     -0.002521     -0.000877
