80
Config_type=bulk_delta_phase Weight=1.0 Lattice="9.335656999 0.000000000 0.000000000 0.000000000 9.335656999 0.000000000 0.000000000 0.000000000 9.335656999" Energy=-679.87951560 Virial="23.41720 0.00003 0.00003 0.00003 23.41725 -0.00009 0.00003 -0.00009 23.41724" pbc="T T T" Properties=species:S:1:pos:R:3:forces:R:3
Ga	      7.00174      2.33391      2.33391         0.000095      0.000109      0.000136
Ga	      7.00174      4.33611      4.66783         0.000076      0.009677     -0.000046
Ga	      0.00000      7.00174      0.33172        -0.000005      0.000085     -0.009751
Ga	      0.00000      2.33391      4.33611        -0.000044      0.000122      0.009670
Ga	      0.33172      0.00000      7.00174        -0.009755     -0.000015      0.000085
Ga	      0.33172      4.66783      2.33391        -0.009755     -0.000075      0.000129
Ga	      2.33391      4.33611      0.00000         0.000121      0.009680     -0.000037
Ga	      2.33391      7.00174      2.33391         0.000122      0.000095      0.000110
Ga	      2.33391      2.33391      2.33391         0.000095      0.000092      0.000092
Ga	      2.33391      2.33391      7.00174         0.000115      0.000136      0.000099
Ga	      2.33391      0.33172      4.66783         0.000132     -0.009752     -0.000088
Ga	      4.33611      0.00000      2.33391         0.009673     -0.000043      0.000122
Ga	      4.33611      4.66783      7.00174         0.009673     -0.000043      0.000078
Ga	      4.66783      2.33391      0.33172        -0.000081      0.000126     -0.009745
Ga	      4.66783      7.00174      4.33611        -0.000046      0.000083      0.009670
Ga	      7.00174      0.33172      0.00000         0.000085     -0.009748     -0.000008
Ga	      2.33391      7.00174      7.00174         0.000110      0.000115      0.000133
Ga	      2.33391      9.00394      0.00000         0.000090      0.009662     -0.000015
Ga	      4.66783      2.33391      4.99955        -0.000051      0.000087     -0.009800
Ga	      4.66783      7.00174      9.00394        -0.000091      0.000109      0.009662
Ga	      4.99955      4.66783      2.33391        -0.009797     -0.000057      0.000081
Ga	      4.99955      0.00000      7.00174        -0.009797     -0.000060      0.000107
Ga	      7.00174      9.00394      4.66783         0.000115      0.009668     -0.000085
Ga	      7.00174      2.33391      7.00174         0.000131      0.000113      0.000110
Ga	      7.00174      7.00174      7.00174         0.000077      0.000076      0.000076
Ga	      7.00174      7.00174      2.33391         0.000110      0.000133      0.000110
Ga	      7.00174      4.99955      0.00000         0.000116     -0.009794     -0.000052
Ga	      9.00394      4.66783      7.00174         0.009652     -0.000085      0.000120
Ga	      9.00394      0.00000      2.33391         0.009664     -0.000020      0.000093
Ga	      0.00000      7.00174      4.99955        -0.000049      0.000113     -0.009799
Ga	      0.00000      2.33391      9.00394        -0.000017      0.000091      0.009658
Ga	      2.33391      4.99955      4.66783         0.000090     -0.009793     -0.000054
O	      8.25537      5.69585      1.47237         0.001892     -0.001377      0.002794
O	      8.25537      3.63981      3.19546         0.001903      0.001350     -0.002835
O	      8.30764      1.47237      1.08029         0.001326      0.002807     -0.001945
O	      8.30764      3.19546      5.74812         0.001362     -0.002835     -0.001973
O	      1.02802      3.19546      1.08029        -0.001381     -0.002845     -0.001966
O	      1.02802      1.47237      5.74812        -0.001394      0.002815     -0.001986
O	      1.08029      8.30764      1.47237        -0.001936      0.001351      0.002786
O	      1.08029      1.02802      3.19546        -0.001952     -0.001386     -0.002820
O	      1.47237      5.74812      1.02802         0.002812     -0.001973     -0.001420
O	      1.47237      3.58754      3.63981         0.002825      0.001929      0.001377
O	      1.47237      1.08029      8.30764         0.002819     -0.001941      0.001349
O	      1.47237      8.25537      5.69585         0.002825      0.001922     -0.001392
O	      3.19546      3.58754      5.69585        -0.002865      0.001963     -0.001395
O	      3.19546      1.08029      1.02802        -0.002830     -0.001954     -0.001403
O	      3.19546      8.25537      3.63981        -0.002843      0.001926      0.001376
O	      3.19546      5.74812      8.30764        -0.002838     -0.001967      0.001369
O	      3.58754      3.63981      1.47237         0.001949      0.001354      0.002811
O	      3.58754      5.69585      3.19546         0.001971     -0.001398     -0.002844
O	      3.63981      1.47237      3.58754         0.001348      0.002816      0.001944
O	      3.63981      3.19546      8.25537         0.001365     -0.002860      0.001935
O	      5.69585      1.47237      8.25537        -0.001385      0.002805      0.001926
O	      5.69585      3.19546      3.58754        -0.001380     -0.002839      0.001952
O	      5.74812      8.30764      3.19546        -0.001972      0.001348     -0.002840
O	      5.74812      1.02802      1.47237        -0.001965     -0.001387      0.002789
O	      3.58754      1.02802      6.14020         0.001942     -0.001395      0.002812
O	      3.58754      8.30764      7.86329         0.001953      0.001351     -0.002854
O	      3.63981      6.14020      5.74812         0.001378      0.002817     -0.001974
O	      3.63981      7.86329      1.08029         0.001378     -0.002855     -0.001975
O	      5.69585      7.86329      5.74812        -0.001410     -0.002860     -0.001976
O	      5.69585      6.14020      1.08029        -0.001382      0.002791     -0.001961
O	      5.74812      3.63981      6.14020        -0.001947      0.001378      0.002811
O	      5.74812      5.69585      7.86329        -0.001968     -0.001402     -0.002846
O	      6.14020      1.08029      5.69585         0.002804     -0.001962     -0.001383
O	      6.14020      8.25537      8.30764         0.002801      0.001910      0.001339
O	      6.14020      5.74812      3.63981         0.002810     -0.001968      0.001370
O	      6.14020      3.58754      1.02802         0.002804      0.001952     -0.001391
O	      7.86329      8.25537      1.02802        -0.002872      0.001921     -0.001400
O	      7.86329      5.74812      5.69585        -0.002864     -0.002000     -0.001399
O	      7.86329      3.58754      8.30764        -0.002872      0.001966      0.001343
O	      7.86329      1.08029      3.63981        -0.002859     -0.001936      0.001378
O	      8.25537      8.30764      6.14020         0.001897      0.001335      0.002812
O	      8.25537      1.02802      7.86329         0.001908     -0.001385     -0.002854
O	      8.30764      6.14020      8.25537         0.001325      0.002789      0.001908
O	      8.30764      7.86329      3.58754         0.001343     -0.002875      0.001948
O	      1.02802      6.14020      3.58754        -0.001389      0.002813      0.001966
O	      1.02802      7.86329      8.25537        -0.001383     -0.002861      0.001939
O	      1.08029      3.63981      7.86329        -0.001951      0.001378     -0.002871
O	      1.08029      5.69585      6.14020        -0.001955     -0.001409      0.002810
