ITEM: TIMESTEP
0
ITEM: NUMBER OF ATOMS
20
ITEM: BOX BOUNDS xy xz yz pp pp pp
-1.3986040388759999e+00 1.2535209795366001e+01 0.0000000000000000e+00
0.0000000000000000e+00 3.1042352590000002e+00 -1.3986040388759999e+00
0.0000000000000000e+00 5.7469227399280003e+00 0.0000000000000000e+00
ITEM: ATOMS id type x y z fx fy fz
1 2       1.545694245122       1.552120000000       1.802478772856       0.002974261707      -0.000020614468       0.075432604855
2 2       3.323308875027       0.000000000000       3.944446161018      -0.002986715478       0.000020614886      -0.075511630952
3 2       0.012789355796       0.000000000000       4.565953451151      -0.006904780721       0.000035164748      -0.016765776572
4 2       4.856216128993       1.552120000000       1.180961766320       0.006859710815      -0.000035168013       0.016888049213
5 2       7.813291461448       0.000000000000       1.802479532022       0.003092059761       0.000020614647       0.075475928765
6 2       9.590915807756       1.552120000000       3.944449284823      -0.003017529935      -0.000020615378      -0.075539634266
7 2       6.280396288525       1.552120000000       4.565956574956      -0.006913274184      -0.000035164659      -0.016787900053
8 2      11.123823061722       0.000000000000       1.180964890125       0.006786043709       0.000035170586       0.016869210650
9 1       5.854701989164       0.000000000000       1.474245105496      -0.003902394087       0.000042919871       0.000239301929
10 1      -0.985698869015       1.552120000000       4.272679828377       0.003846475955      -0.000042920372      -0.000277824420
11 1       1.388998924765       0.000000000000       3.246806738166      -0.025433037479       0.000011061144       0.017752591005
12 1       3.479996843621       1.552120000000       2.500106114665       0.025505531390      -0.000011057724      -0.017678807700
13 1       2.985702835561       1.552120000000       5.119642770831      -0.010667383914      -0.000021070576       0.022033971489
14 1       1.883290568185       0.000000000000       0.627279798403       0.010683927235       0.000021071528      -0.022117256494
15 1      12.122299205490       1.552120000000       1.474245864662      -0.003734783479      -0.000042923763       0.000287732046
16 1       5.281910428353       0.000000000000       4.272673235780       0.003792808870       0.000042920103      -0.000247355606
17 1       7.656605857493       1.552120000000       3.246809861972      -0.025426133247      -0.000011061685       0.017745074818
18 1       9.747603776350       0.000000000000       2.500109238470       0.025462374397       0.000011058770      -0.017676065118
19 1       9.253309768290       0.000000000000       5.119645894636      -0.010688951863       0.000021071029       0.022021285281
20 1       8.150897500914       1.552120000000       0.627282922209       0.010671790548      -0.000021070676      -0.022143498872
