ITEM: TIMESTEP
0
ITEM: NUMBER OF ATOMS
30
ITEM: BOX BOUNDS xy xz yz pp pp pp
-2.5369215170000001e+00 5.0738430330000002e+00 -2.5369215170000001e+00
0.0000000000000000e+00 4.3940773809999998e+00 0.0000000000000000e+00
0.0000000000000000e+00 1.3659148676999999e+01 0.0000000000000000e+00
ITEM: ATOMS id type c_pe_atom
1 2      -4.520771764304
2 2      -4.520666950317
3 2      -4.520779512343
4 2      -4.520806112182
5 2      -4.520539357017
6 2      -4.520780604832
7 2      -4.520595631633
8 2      -4.520727675681
9 2      -4.520804345316
10 2      -4.520764736603
11 2      -4.520762277345
12 2      -4.520621762080
13 1      -6.886792081755
14 1      -6.886747307625
15 1      -6.886754178067
16 1      -6.886860723290
17 1      -6.886821786358
18 1      -6.886812080376
19 1      -6.886910254769
20 1      -6.886858448315
21 1      -6.886892938169
22 1      -6.886877145517
23 1      -6.886865500361
24 1      -6.886882655491
25 1      -6.886789663760
26 1      -6.886857338935
27 1      -6.886806285231
28 1      -6.886749592701
29 1      -6.886754767464
30 1      -6.886815780328
