ITEM: TIMESTEP
0
ITEM: NUMBER OF ATOMS
30
ITEM: BOX BOUNDS xy xz yz pp pp pp
-2.5369215170000001e+00 5.0738430330000002e+00 -2.5369215170000001e+00
0.0000000000000000e+00 4.3940773809999998e+00 0.0000000000000000e+00
0.0000000000000000e+00 1.3659148676999999e+01 0.0000000000000000e+00
ITEM: ATOMS id type v_vir_xx v_vir_yy v_vir_zz v_vir_xy v_vir_xz v_vir_yz
1 2      -3.371892628430      -3.371882633363      -2.245739618468      -0.000013154371      -0.000007226822       0.000013128024
2 2      -3.371971905140      -3.371929166747      -2.245860939638       0.000033235931       0.000022873099       0.000009640404
3 2      -3.371869301332      -3.371865473822      -2.245724940657       0.000003806762      -0.000003604523       0.000010396358
4 2      -3.371799118947      -3.371827438179      -2.245698165873       0.000018677985      -0.000018544871      -0.000014904381
5 2      -3.371954087466      -3.371941955002      -2.245948167967       0.000020355490       0.000005565411       0.000003548954
6 2      -3.371794253631      -3.371840358798      -2.245680660912       0.000002990201      -0.000020671089      -0.000019348306
7 2      -3.371931887727      -3.371944417889      -2.245983737054       0.000010225517       0.000005993278       0.000008487190
8 2      -3.371935358659      -3.371928781229      -2.245727142028      -0.000004890035      -0.000008825473       0.000010398715
9 2      -3.371863772058      -3.371868917554      -2.245682156046       0.000022610453       0.000013223422      -0.000016358825
10 2      -3.371930606812      -3.371893738086      -2.245767354911      -0.000021732324      -0.000002005237      -0.000001360567
11 2      -3.371879766845      -3.371871676985      -2.245656318572      -0.000001500786       0.000010179899      -0.000014825765
12 2      -3.372009478254      -3.371944464232      -2.245890275603      -0.000007272447       0.000025751571      -0.000003613505
13 1       1.948493299734       2.796924282915       1.640990670181      -0.734786514048       0.618668669949       0.357172863019
14 1       3.221150297890       1.524279751064       1.640994509642      -0.000013806880      -0.000002450017      -0.714358375906
15 1       1.948503360195       2.796940483250       1.640998793230       0.734762993146      -0.618657508513       0.357179069689
16 1       1.948543258496       2.796967347374       1.640995191456      -0.734779548251       0.618647541653       0.357186329756
17 1       1.948508638711       2.796989351456       1.641009169303       0.734763931826      -0.618639682903       0.357196764574
18 1       3.221152912606       1.524295042632       1.641010347141       0.000010535859      -0.000005951970      -0.714359507388
19 1       1.948483771964       2.796978544655       1.641004200083      -0.734761206833       0.618655615117       0.357190702213
20 1       3.221144654093       1.524285050476       1.640986844414      -0.000015547461       0.000006124464      -0.714349269290
21 1       1.948505303545       2.796954980003       1.641012071402       0.734773270376      -0.618658862573       0.357180093209
22 1       1.948417931129       2.796930090314       1.640990827378      -0.734765111147       0.618653433697       0.357184393256
23 1       1.948500328740       2.796872383294       1.640987484452       0.734780233926      -0.618666100396       0.357161762408
24 1       3.221139490423       1.524251156389       1.640991055634      -0.000056143726       0.000015743325      -0.714358536545
25 1       1.948554375823       2.796915920594       1.641016386867      -0.734806986802       0.618648955245       0.357157877972
26 1       3.221206643613       1.524271234619       1.641018951360       0.000050598247      -0.000009036480      -0.714364353062
27 1       1.948457276010       2.796936885906       1.640996343017       0.734747034837      -0.618638656891       0.357189928374
28 1       1.948542663540       2.796952552337       1.641017794440      -0.734769419005       0.618655956628       0.357174361879
29 1       1.948510452749       2.796947914667       1.641013369768       0.734768890630      -0.618654396827       0.357174088720
30 1       3.221230697373       1.524302890867       1.641011179891       0.000031087301      -0.000005293919      -0.714367441045
