ITEM: TIMESTEP
0
ITEM: NUMBER OF ATOMS
30
ITEM: BOX BOUNDS xy xz yz pp pp pp
-2.5369215170000001e+00 5.0738430330000002e+00 -2.5369215170000001e+00
0.0000000000000000e+00 4.3940773809999998e+00 0.0000000000000000e+00
0.0000000000000000e+00 1.3659148676999999e+01 0.0000000000000000e+00
ITEM: ATOMS id type x y z fx fy fz
1 2       0.000000000000       0.000000000000       1.968820000000       0.000030930273      -0.000053250441      -0.024764696799
2 2       0.000000000000       2.929380000000       0.307710000000       0.000028803609       0.000055177529       0.024717258652
3 2       2.536920000000       1.464690000000       2.584220000000       0.000055506204       0.000004539412       0.024863602770
4 2       0.000000000000       2.929380000000       4.245350000000       0.000005247101       0.000051100711      -0.024758658544
5 2       2.536920000000       1.464690000000       6.521870000000      -0.000000847815       0.000002097652      -0.024798884663
6 2       0.000000000000       0.000000000000       4.860750000000      -0.000020962802      -0.000046353752       0.024848008949
7 2       0.000000000000       2.929380000000       7.137280000000      -0.000003044018       0.000045019795       0.024747091859
8 2       0.000000000000       0.000000000000       8.798390000000      -0.000006524072      -0.000046305266      -0.024765248909
9 2       0.000000000000       2.929380000000      11.074920000000      -0.000020553375       0.000060134381      -0.024765145461
10 2       2.536920000000       1.464690000000       9.413800000000       0.000011529021      -0.000006534929       0.024787747753
11 2       0.000000000000       0.000000000000      11.690330000000      -0.000018977464      -0.000045382080       0.024769514500
12 2       2.536920000000       1.464690000000      13.351440000000       0.000007513211       0.000011097089      -0.024774213016
13 1      -0.768700000000       1.331430000000       3.414790000000       0.021660905206      -0.037584199670      -0.000047811006
14 1       1.537410000000       0.000000000000       3.414790000000      -0.043422432886      -0.000039145081      -0.000016347126
15 1       1.768220000000       3.062640000000       3.414790000000       0.021695329409       0.037603180211      -0.000025703622
16 1       3.305630000000       0.133260000000       1.138260000000      -0.021733692283       0.037551134704       0.000037316001
17 1       3.305630000000       2.796120000000       1.138260000000      -0.021786314044      -0.037517058770       0.000086762839
18 1       0.999520000000       1.464690000000       1.138260000000       0.043387290516      -0.000025180386       0.000054343847
19 1       1.768220000000       2.796120000000       7.967830000000       0.021716154835      -0.037545905360       0.000107726594
20 1       4.074330000000       1.464690000000       7.967830000000      -0.043443302068      -0.000023517123       0.000108850781
21 1       1.768220000000       0.133260000000       7.967830000000       0.021671798287       0.037570546387       0.000112516016
22 1       0.768700000000       1.597950000000       5.691320000000      -0.021717211799       0.037593866776      -0.000098164891
23 1       0.768700000000       4.260820000000       5.691320000000      -0.021639398076      -0.037687623862      -0.000124355243
24 1      -1.537410000000       2.929380000000       5.691320000000       0.043441821036       0.000095436937      -0.000124827524
25 1      -0.768700000000       4.260820000000      12.520890000000       0.021615988698      -0.037662736867      -0.000085639718
26 1       1.537400000000       2.929380000000      12.520890000000      -0.043353995726       0.000058888739      -0.000063732170
27 1      -0.768710000000       1.597950000000      12.520890000000       0.021800244431       0.037591362132      -0.000072575841
28 1       3.305620000000       3.062640000000      10.244360000000      -0.021636644486       0.037618847632       0.000035651044
29 1       0.768700000000       1.331430000000      10.244360000000      -0.021660828924      -0.037586261050       0.000000567195
30 1       3.536440000000       0.000000000000      10.244360000000       0.043335668003      -0.000042975451       0.000009045734
