ITEM: TIMESTEP
0
ITEM: NUMBER OF ATOMS
160
ITEM: BOX BOUNDS pp pp pp
0.0000000000000000e+00 8.2637155969999991e+00
0.0000000000000000e+00 8.2637155969999991e+00
0.0000000000000000e+00 2.4791146791999999e+01
ITEM: ATOMS id type x y z fx fy fz
1 2       1.202430000000       5.132720000000      21.789460000000      -0.269650147177       0.017627909460      -0.009986561596
2 2       5.128550000000       0.834190000000      13.499790000000      -0.025934925576       0.075289024068      -0.182464471522
3 2       7.055600000000       7.305050000000       7.294210000000      -0.077175376446      -0.201511874218      -0.197642180774
4 2       7.192550000000       7.034900000000      15.571240000000      -0.133921900217       0.439237082531       0.226624128870
5 2       5.150250000000       5.184610000000       0.967590000000       0.204831380246      -0.021121605923      -0.175680378234
6 2       2.989890000000       3.163210000000       7.121560000000       0.243388924264      -0.019204944504       0.138796095963
7 2       0.931810000000       1.035360000000       1.091730000000      -0.023478209548      -0.044555977564      -0.055598873101
8 2       5.098310000000       1.025280000000       5.173940000000       0.034347264975      -0.049096894900      -0.190071499963
9 2       3.136940000000       2.917690000000      15.434200000000      -0.052807236366       0.025272353167       0.020331668550
10 2       5.316230000000       1.098390000000      21.626840000000       0.053692942892      -0.134008668604       0.218866192605
11 2       3.090980000000       7.152010000000      11.365690000000       0.034359867254       0.096487257056      -0.174854519737
12 2       7.320150000000       3.151540000000      19.552450000000      -0.128764449774      -0.352437964262      -0.057207701710
13 2       1.006440000000       5.026460000000      13.314200000000      -0.049454357164       0.282711804119       0.102837838354
14 2       7.235150000000       3.171850000000       3.161610000000      -0.249083747075       0.022196406930       0.179248725982
15 2       5.032930000000       5.271810000000       9.242390000000       0.203234121561       0.003013773708       0.208334877427
16 2       7.260170000000       7.335370000000      23.788060000000       0.077995898538       0.011263670908       0.026662485019
17 2       3.152070000000       7.357830000000      19.685680000000       0.011390538241      -0.041916934792      -0.045609929071
18 2       0.896120000000       1.065180000000       9.389150000000       0.010368024252      -0.234335337336      -0.108175261872
19 2       3.187930000000       7.328740000000       3.036850000000      -0.007528665761       0.016602349763       0.015995391722
20 2       1.157750000000       1.026080000000      17.587850000000      -0.036019222874      -0.100063134452      -0.095256141607
21 2       3.865470000000       0.197220000000       8.277310000000       0.064365184090      -0.007227826014       0.053730594480
22 2       6.061220000000       6.028910000000      12.372390000000       0.260666163153       0.107261748584      -0.230792512069
23 2       2.133980000000       2.122350000000      20.675240000000      -0.049849809126      -0.239588750388      -0.000347678982
24 2       6.320180000000       6.204660000000      20.614870000000      -0.028611591175       0.094529485484       0.347536894534
25 2       1.929880000000       6.308210000000       8.170880000000      -0.093585796303      -0.047197171807      -0.046080734712
26 2       8.225280000000       2.030540000000       6.160100000000      -0.202889816642      -0.109634817404       0.029674570074
27 2       1.969230000000       2.062400000000       4.172060000000       0.016465153749      -0.075055512885      -0.124631847867
28 2       0.037310000000       1.986430000000      14.410430000000       0.055553368474       0.009529245299       0.395466200355
29 2       0.173650000000       6.120510000000      18.552510000000      -0.051861356444       0.269488332085       0.178289485723
30 2       6.187330000000       0.054480000000       2.074870000000       0.021330193922      -0.002662006354      -0.041844309192
31 2       6.016360000000       0.077920000000      10.392610000000       0.377431699979      -0.203290331787       0.161629759310
32 2       4.125590000000       2.166760000000      18.546600000000       0.264267924719      -0.079454158176      -0.242976407510
33 2       6.327400000000       8.212330000000      18.590760000000      -0.253191659609       0.425095395736      -0.137574971199
34 2       6.268150000000       2.042620000000      16.519510000000      -0.081575203663      -0.551544832689       0.213416444764
35 2       0.158590000000       2.047530000000      22.778120000000      -0.165046288740       0.171360483595       0.126713163465
36 2       1.997970000000       8.045140000000      14.560770000000      -0.138672999325       0.081632237458       0.147046007802
37 2       3.963580000000       5.940410000000      14.471070000000       0.108658348009       0.057421757562       0.064286159511
38 2       6.183080000000       4.152700000000       6.208660000000      -0.335326813553       0.193759621220      -0.255083807856
39 2       4.148090000000       6.306940000000      22.766240000000       0.256999685863       0.364043622823      -0.080531091288
40 2       0.101580000000       4.134710000000      16.531660000000       0.118141050825      -0.247881138650      -0.024517920303
41 2       2.058650000000       4.185350000000       2.065300000000       0.000399313787      -0.004776592047       0.005937819170
42 2       4.096370000000       4.244200000000      20.609320000000       0.130390320933       0.023636457687      -0.285443821054
43 2       4.095200000000       8.064820000000      16.592570000000       0.374864932314       0.185889759541       0.092355315246
44 2       6.202850000000       4.188320000000      22.695270000000       0.410907548546      -0.132590470922       0.265947367222
45 2       8.199770000000       6.113860000000      10.318750000000      -0.189982704749       0.294595940549       0.194656705428
46 2       8.243950000000       8.207400000000      12.410170000000      -0.168636468875      -0.251434708772      -0.115913875817
47 2       0.050050000000       4.215050000000       0.025330000000      -0.446049861431      -0.015021532917      -0.223962097885
48 2       6.144000000000       4.015470000000      14.438230000000       0.006376679955       0.023635013250      -0.275812249905
49 2       4.067040000000       4.143870000000       4.107340000000       0.416429479889       0.100943330407       0.204972223775
50 2       2.104610000000       2.007720000000      12.317780000000       0.161475890099      -0.113385425147       0.205921472524
51 2       2.070030000000       4.050170000000      10.342610000000       0.108230836201       0.238390703131      -0.117427239215
52 2       0.036450000000       6.333160000000       2.170900000000       0.088930603266      -0.056162329083      -0.083630760613
53 2       0.199660000000       8.227020000000      20.762080000000      -0.161620678213      -0.153277819857       0.036404695282
54 2       4.067380000000       2.027440000000       1.952820000000      -0.071793590040       0.076530867004       0.063000671901
55 2       6.120830000000       2.034380000000      24.747610000000       0.083167235983       0.220475356874      -0.198981286099
56 2       8.232370000000       4.092970000000       8.260970000000       0.045256834069      -0.032339261297      -0.031849463284
57 2       6.010550000000       2.141710000000       8.366470000000       0.066986895068       0.111131538553      -0.026314574115
58 2       3.961720000000       6.341490000000       6.137430000000       0.122114405172      -0.379868184334      -0.154746815449
59 2       6.251170000000       6.329430000000       4.181010000000      -0.032548394942      -0.285973180395       0.146530721006
60 2       2.150180000000       6.306170000000      24.754820000000      -0.123981631879       0.084877954959       0.090267770838
61 2       5.111420000000       3.083480000000      11.405940000000      -0.330229855136       0.063439718900       0.103950968781
62 2       3.128750000000       1.077990000000      23.736830000000       0.063935969618      -0.493680251004       0.019555717135
63 2       3.147020000000       5.094400000000      17.558210000000      -0.288116997786      -0.058494500744      -0.012254091395
64 2       0.972720000000       7.281730000000       5.153580000000      -0.011442436509       0.335485514627      -0.039235894877
65 1       2.088140000000       2.124910000000       2.098310000000       0.097644337072       0.193597548230       0.101642846087
66 1       6.053960000000       6.155010000000       6.163740000000       0.139550967691       0.023131418322      -0.070790099407
67 1       4.155850000000       8.219660000000       6.332630000000       0.127384292851       0.065675342807      -0.047046334656
68 1       4.244560000000       0.128430000000       2.019180000000       0.017642034816       0.005499996549       0.155317927030
69 1       8.151560000000       6.221090000000       4.078210000000       0.273552013960      -0.189326830596       0.211328588924
70 1       0.021450000000       2.109770000000       4.206550000000       0.161844647133       0.142653301092       0.245977997627
71 1       6.130050000000       4.124490000000       8.230210000000       0.300313268210      -0.132563827318      -0.117366693676
72 1       1.924650000000       4.358230000000       0.192860000000      -0.080361467409       0.034529440414       0.047057128001
73 1       8.260680000000       4.284390000000       2.037990000000       0.239913706466       0.034216325941      -0.148284034500
74 1       8.051660000000       3.984060000000       6.391100000000      -0.067769439590      -0.119057429253       0.110140959970
75 1       4.218050000000       2.131830000000       0.039590000000      -0.283327788919       0.249504169281      -0.165527869865
76 1       3.959960000000       6.312590000000       8.137790000000      -0.078081211033       0.061729328042      -0.041544899185
77 1       2.085310000000       0.078940000000       4.110840000000       0.046607472203       0.120573296015       0.006647185449
78 1       6.079210000000       8.218760000000       4.037980000000      -0.144752074017       0.110240077848       0.011165927828
79 1       2.058950000000       6.254130000000       6.253660000000      -0.208708977013      -0.165605987918      -0.198805416023
80 1       6.137090000000       2.102050000000       2.003160000000      -0.080751310756      -0.067812111758      -0.089565543532
81 1       4.119580000000       4.075860000000       2.089040000000      -0.244176904066      -0.017594741465       0.186743684236
82 1       4.168050000000       4.271470000000       6.100080000000      -0.229555155832      -0.175394421412       0.111694747490
83 1       8.062510000000       2.074890000000       8.234220000000       0.031900334049       0.299644948887      -0.186312899556
84 1       0.049000000000       6.217790000000       0.094180000000       0.166884242690      -0.107582241418      -0.128909369480
85 1       8.120060000000       0.063210000000       6.210430000000       0.091051985667       0.093730755618      -0.057922902190
86 1       8.132340000000       8.236710000000       2.109530000000       0.013335414326       0.002237162549      -0.174064886465
87 1       4.184100000000       6.155360000000       4.165470000000      -0.208205148532       0.081405180248       0.004733503852
88 1       4.062300000000       2.141620000000       4.044340000000      -0.138965729377       0.049309762391       0.095633107319
89 1       6.166720000000       2.140160000000       6.272100000000       0.125524944547       0.025725470747      -0.045295488362
90 1       2.025700000000       6.242920000000       2.030040000000      -0.116186829423      -0.189813991421      -0.055586967315
91 1       2.192810000000       4.010880000000       3.935230000000       0.080203089869      -0.017010624296      -0.024712960761
92 1       6.072800000000       4.256950000000       4.205680000000       0.112910121062       0.007552741456      -0.045824993661
93 1       6.279080000000       0.144000000000       0.109360000000       0.114502098736      -0.037649756560       0.038146756929
94 1       1.982340000000       8.220570000000       8.368920000000       0.162487074896       0.161043372286       0.167775240004
95 1       6.236590000000       6.263040000000       2.127140000000       0.086596961000       0.052739366479       0.107508913685
96 1       1.907950000000       2.094940000000       6.101750000000      -0.067031084019       0.009242370339      -0.018093662498
97 1       2.025390000000       2.108130000000      10.384490000000       0.005124190249       0.040847068148       0.102937196918
98 1       6.115810000000       6.044510000000      14.390120000000      -0.174461373096      -0.196327547691      -0.142053703791
99 1       4.047840000000       8.067260000000      14.597280000000       0.049406249688      -0.152951316353       0.079176525351
100 1       4.135700000000       8.134170000000      10.212070000000      -0.123063009066      -0.091539441794       0.086133108083
101 1       8.126500000000       6.204690000000      12.314050000000       0.031220140151      -0.161255426502      -0.014342901749
102 1       0.146020000000       1.811650000000      12.545100000000       0.043787753885      -0.062946239481      -0.072630710535
103 1       6.431060000000       3.899850000000      16.326480000000       0.000194693536       0.097382840851      -0.011692834677
104 1       1.994780000000       4.257760000000       8.285020000000      -0.271466005069      -0.063918906923       0.149929219555
105 1       0.105240000000       4.247880000000      10.130650000000       0.041340843747       0.013677377829      -0.049285702400
106 1       8.256650000000       3.966560000000      14.485230000000      -0.163908896262      -0.017903145651       0.105145005865
107 1       4.096750000000       2.084370000000       8.154800000000      -0.198640028171      -0.134667754831      -0.199330350999
108 1       4.125490000000       6.178160000000      16.416260000000       0.147112431908      -0.080098105424       0.247266710436
109 1       1.991640000000       8.215590000000      12.465570000000      -0.007824944744       0.062934702763      -0.180670738064
110 1       6.240240000000       8.097120000000      12.357970000000      -0.068364557351       0.198333736325       0.066622973368
111 1       2.061990000000       6.149850000000      14.349070000000       0.144311708520      -0.281888340999      -0.220256391256
112 1       6.095890000000       1.985470000000      10.276090000000       0.239100595804       0.189300844689       0.156435718594
113 1       4.049080000000       4.184380000000      10.336590000000      -0.118518649658      -0.103897656434       0.148684052672
114 1       4.216350000000       4.053340000000      14.497580000000       0.035488789392       0.124439606461       0.138154866193
115 1       0.021810000000       2.013250000000      16.429830000000      -0.012494981800       0.206056198962       0.120163287010
116 1       8.205920000000       6.194600000000       8.295920000000       0.106136863057      -0.291927128345       0.095351435251
117 1       0.021020000000       8.164360000000      14.460430000000       0.132321173487       0.136365731298      -0.213045191815
118 1       8.080710000000       8.130510000000      10.415680000000       0.193332827955       0.191229273318      -0.079448415268
119 1       4.183290000000       6.228900000000      12.531960000000      -0.034765042266       0.090668367382       0.028986156061
120 1       4.087710000000       1.915830000000      12.437360000000      -0.123387898758       0.011535141723      -0.063094745521
121 1       6.282250000000       1.947150000000      14.495940000000       0.083855798199       0.271069888161       0.050509034300
122 1       1.956800000000       6.120140000000      10.254070000000      -0.034459416148      -0.095470414312       0.046934310350
123 1       2.058410000000       3.957200000000      12.278130000000      -0.049477557380      -0.061664356573      -0.107752938720
124 1       6.181970000000       4.130250000000      12.502920000000       0.124982639541      -0.202560081489      -0.198304320125
125 1       6.011170000000       0.107320000000       8.394390000000      -0.061812938264       0.079864981399       0.046359550367
126 1       2.189770000000       0.013470000000      16.458370000000      -0.081690354828       0.103988399591       0.067174716353
127 1       6.199350000000       6.246650000000      10.375800000000      -0.013803979352      -0.199236416953       0.072089553599
128 1       2.049710000000       1.837260000000      14.378590000000      -0.234907661035       0.192156026218      -0.165066437243
129 1       2.233510000000       2.002450000000      18.708050000000      -0.011978424142      -0.079902828888       0.044918778337
130 1       6.245730000000       6.217860000000      22.635240000000      -0.164888255981      -0.056017794385       0.091710389578
131 1       4.267910000000       0.029620000000      22.692070000000       0.073078576102      -0.150095013375       0.087797808807
132 1       4.312860000000       0.075250000000      18.546320000000      -0.150655199478      -0.348664928131       0.156610516202
133 1       0.099620000000       6.249240000000      20.669090000000      -0.106207230335       0.072550159358      -0.216181862199
134 1       0.098910000000       2.046680000000      20.722530000000       0.192700380426       0.066235065679       0.097015320331
135 1       6.310030000000       4.105880000000      24.707230000000      -0.142942316631       0.021593610777       0.061016731220
136 1       2.077250000000       3.980570000000      16.507180000000      -0.027444593072      -0.006494121578       0.065505770701
137 1       0.102230000000       4.176620000000      18.477450000000      -0.154463009772       0.209861707855      -0.246385349011
138 1       8.220120000000       4.098380000000      22.811570000000       0.165718600930       0.102079143191      -0.041656591125
139 1       4.274450000000       1.902110000000      16.585260000000      -0.060060237406       0.319537058389      -0.146007087677
140 1       4.103310000000       6.248770000000      24.709210000000      -0.192836569620      -0.171825149745      -0.205825899532
141 1       2.082890000000       0.151610000000      20.702160000000       0.086089411140       0.056991864809      -0.161939931084
142 1       6.400760000000       8.260730000000      20.589280000000      -0.069785017087      -0.235927877418      -0.125874016014
143 1       2.202670000000       6.270630000000      22.821850000000       0.009560046601      -0.074344339139       0.063379794869
144 1       6.213790000000       1.964030000000      18.523340000000       0.004619332418       0.141067837007      -0.017364021785
145 1       4.216100000000       4.069270000000      18.685100000000       0.177406931636       0.220274349471      -0.274122514019
146 1       4.350630000000       4.374720000000      22.505270000000      -0.073762519372       0.032700427880       0.006902565463
147 1       8.194190000000       2.208670000000      24.756610000000       0.220706167016      -0.073990440629      -0.025566201829
148 1       0.077180000000       6.070390000000      16.604010000000       0.032601146224      -0.091744863749       0.179801596263
149 1       8.221160000000       0.147590000000      22.651740000000      -0.145448212360      -0.016610639877       0.081989523447
150 1       0.061790000000       8.223300000000      18.686700000000       0.007918188080      -0.167570881260      -0.204950202537
151 1       4.303800000000       6.264270000000      20.688610000000       0.047436670829      -0.247710159252       0.076378373511
152 1       4.194270000000       2.169480000000      20.566670000000      -0.097116772208       0.248436092524       0.015500746503
153 1       6.334970000000       2.205260000000      22.770700000000      -0.114342180207      -0.017523308817      -0.005539697209
154 1       2.130980000000       6.234810000000      18.630580000000       0.058672846722       0.045361406621       0.026019965562
155 1       2.185810000000       4.062180000000      20.679030000000       0.143815288003      -0.124676568639       0.117607087168
156 1       6.261030000000       4.221830000000      20.683490000000      -0.277326806111       0.060778088849       0.138625506782
157 1       6.165080000000       0.012280000000      16.594180000000       0.086363857888      -0.049488145156      -0.011451042146
158 1       2.038170000000       0.018910000000       0.021100000000      -0.044680032988      -0.034852549345      -0.028132362564
159 1       6.494050000000       6.340440000000      18.748930000000       0.094953476670       0.006548943942      -0.029892773776
160 1       2.043700000000       2.107490000000      22.643860000000       0.167528675170       0.143194957732       0.110684383353
