ITEM: TIMESTEP
0
ITEM: NUMBER OF ATOMS
160
ITEM: BOX BOUNDS pp pp pp
0.0000000000000000e+00 8.2637155969999991e+00
0.0000000000000000e+00 8.2637155969999991e+00
0.0000000000000000e+00 2.4791146791999999e+01
ITEM: ATOMS id type v_vir_xx v_vir_yy v_vir_zz v_vir_xy v_vir_xz v_vir_yz
1 2      -4.152282538338      -1.988792071015      -2.119804074088      -0.023379218655      -0.121405247562      -0.060406305774
2 2      -4.561906787651      -3.678321430264      -4.091283364184      -0.205563653440       0.571155124451       0.049502610061
3 2      -3.451064385366      -4.597717956367      -3.906513200010       0.242755604273       0.475155852695      -0.065020495626
4 2      -1.785541628876      -3.909560364798      -3.916259153415       0.405270123469      -0.221881980776       0.486628639714
5 2      -4.082053985146      -2.102985394274      -3.919325203432       0.174006161865       0.014911752943       0.026905975344
6 2      -4.160786176488      -2.130617722482      -2.611737564170       0.220254256074       0.064164650554      -0.466167132516
7 2      -3.559137398120      -4.842584898338      -2.206879025541      -0.580989271262       0.000723694926      -0.029224975057
8 2      -1.564323979573      -5.103889013658      -4.039589811531       0.062437273344      -0.241033066901      -0.272528292802
9 2      -4.873267665929      -3.697809370108      -2.181688647115      -0.593532154237       0.084150843274      -0.381222777608
10 2      -3.769422839767      -4.590243238221      -4.030365099011       0.262290224274       0.063184913791      -0.305340749580
11 2      -5.172912430102      -1.803946591909      -4.203983146730      -0.044120218186       0.383267518080      -0.266761789784
12 2      -1.854165277044      -3.930192961250      -3.948972135631      -0.033390832325       0.516782817367       0.471743933510
13 2      -2.201264200553      -4.085303872821      -2.805468910816      -0.360991426451       0.739599655545      -0.043459606148
14 2      -3.989498155784      -2.035403219982      -3.975209311482       0.202066779806      -0.000832694831      -0.008232495879
15 2      -4.683278425351      -3.371799312899      -3.865355153208       0.250102402055       0.176754160576       0.358345799213
16 2      -1.320014880091      -4.945022276066      -4.295697612580      -0.033147298178      -0.307695632043      -0.036801744088
17 2      -4.508641030207      -3.786534326967      -2.273912810695       0.514024747241       0.042818090446       0.213377112665
18 2      -2.086506114346      -4.183826396858      -2.585263823046       0.052409671754      -0.320884851857      -0.267015039464
19 2      -3.595494352657      -4.843194033423      -2.201785143550      -0.600012700317       0.057147501981      -0.006541500584
20 2      -4.903360129201      -1.329865117886      -4.277471365540       0.123908340364       0.308548838882       0.588697042493
21 2      -3.033009236882      -3.121450787390      -0.513506906691      -0.837394501416       0.134436209993       0.073391858738
22 2      -2.659709778962      -2.773990200909      -4.673411075493      -0.696592113742      -0.082240397794       0.613759938899
23 2      -4.281822529595      -1.104356783105      -1.064635004525      -0.445057265230       0.663689313890       0.482256856251
24 2      -3.471019787264      -4.251419768491      -3.734714372190      -0.907232081094       1.512845786339       1.556016669069
25 2      -4.292562331317      -2.023120816499      -2.545180972496      -0.627604739041       0.663701148019       1.085851312057
26 2      -2.900670800971      -0.439381590329      -2.635380105465       0.510444128308       0.384849899250      -0.776550557103
27 2      -2.666932528973      -0.039115649967      -2.935022904771      -0.471621555208       0.429493154668       0.298248727618
28 2      -4.040790143322      -3.858508894013      -3.901758990860       0.911225446461       1.572640961128      -1.599042008914
29 2      -0.559337087962      -2.597992901226      -2.455012452292       0.362791972363       0.634512670092      -0.622865014953
30 2      -1.196387494585      -4.337559506916      -1.055695466370       0.981533052223       0.444018437355       0.919353740125
31 2      -2.291852495306      -2.709607266730      -4.534904083235       0.369270935479       0.572590464075       0.407592942816
32 2      -2.374091207130      -2.369410213833      -4.877087036250       0.514171703513       0.079806049346       0.049303857791
33 2      -3.847160212570      -3.785312019734      -4.523808790722       0.900824500270      -0.192683501323       1.352618795844
34 2      -4.073135458797      -3.601741593059      -4.769049845672      -0.921661037744       0.444668465133       1.545188735225
35 2      -2.879155243932      -2.370014046120      -4.268592060551       0.507584085934       0.762528448687       0.426300776704
36 2      -4.164191406423      -2.440329021106      -2.639515803834       1.294856008922      -0.510961547415       0.038323338191
37 2      -2.777745562066      -3.127771274868      -0.807038827433       0.275538299474       1.057890482803       0.265561628942
38 2      -3.446067563641      -3.937398966978      -4.166533606034       0.802810579975      -0.794905119574       0.351215330628
39 2      -2.713262737864      -0.168896887114      -3.012888492451       0.468910774006       0.174009164639      -0.733754598258
40 2      -0.333853335028      -2.853403599503      -2.950128357079      -0.471171451574      -0.241783303787      -0.189304756737
41 2      -3.838893379337      -3.599008456285      -2.926842704322       0.323185859908      -1.723574551639       1.610571536476
42 2      -2.390816222962      -3.836452195693      -1.503387519490       0.058898578087      -1.231387207505      -0.695207306590
43 2      -2.262117393317      -2.576877748771      -4.659536857447      -0.418631487700       0.580722515799      -0.214087483573
44 2      -3.585643824670      -4.163776424408      -4.288129273357       0.923188591349      -0.883428590927       0.419002506091
45 2      -4.089290925134      -3.555152428364      -4.469530171267       0.837593412736       0.587548952876      -1.072202973286
46 2      -3.926652413519      -3.753240408388      -3.947695222988      -0.794746159242      -0.156932958539      -1.078320783648
47 2      -3.613485515782      -4.095125374402      -4.172794384730      -0.865246739084      -1.016022698559      -0.220582992808
48 2      -2.258938427899      -3.884378540045      -1.728675024771      -0.060334757325      -1.140009944320       0.937867513835
49 2      -3.581123060290      -4.116042881041      -4.266619079218      -0.931289241996      -1.100861297099      -0.064352403154
50 2      -0.559610908667      -2.860620364813      -2.947337153875      -0.428276603129       0.878750426745       0.193508985420
51 2      -0.276289176920      -2.895186940405      -2.809058981248       0.386369228314      -0.371730847425      -0.021484675212
52 2      -3.942205872893      -2.565680057875      -2.424056250307       0.483265120645       0.652608256725      -0.947504957537
53 2      -2.862385404781      -3.986521177071      -2.460912760816      -1.134810080029       0.211949382003      -0.766623988468
54 2      -3.948834167118      -2.560090524410      -2.353690904709       0.514624599517       0.769662571222      -0.922013265472
55 2      -2.663720838906      -2.438863549885      -4.232026852785      -0.510110554548       0.472407851343       0.075327733284
56 2      -3.712290019365      -3.736006656400      -2.931753168859      -0.268078988830      -1.591251463743      -1.822097110461
57 2      -1.958393904942      -4.242678830643      -2.517058969687      -0.606812441038       1.211621651082       0.444777225404
58 2      -2.831827288298      -2.399186289219      -4.670570137841       0.477222880142       0.684527611517       0.387410278422
59 2      -2.666905089172      -2.444587872117      -4.293694624414      -0.597364254652       0.640985202313       0.125588623185
60 2      -2.611878641369      -0.129340581703      -3.121666600108      -0.463723154173       0.638498197273       0.261804694968
61 2      -0.402699253672      -2.135351925912      -1.939705069930      -0.037311018486       0.186846672807       0.866586058575
62 2      -2.092619426650      -0.707605123970      -2.110877554869      -0.077443953237       1.013648521679       0.123539799429
63 2      -0.622822002599      -2.006418313448      -2.030538645771       0.180651976239       0.157636235139      -1.076894473802
64 2      -2.086260838430      -0.543169414155      -2.002305491758      -0.040511857257       1.025564763851      -0.000958344518
65 1       2.211512986305       1.790005542463       1.646461629952       0.253545513813       0.124949587984      -0.044807740926
66 1       1.959468394718       1.877582069323       2.423364299963       0.152369233275       0.209220193600       0.194008597305
67 1      -0.255277272672       0.992818099423       1.629677313662      -0.199864235766      -0.198131723607      -0.530913398853
68 1       0.814518115473       1.062936655144      -0.428419866580       0.311677299329      -0.048164223541       0.035358056749
69 1       1.304212902118       0.377730987409       1.200029968713      -0.125617991765       0.352367950414      -0.248675229581
70 1       1.170030123802      -0.078681950397       0.938496554721      -0.170792809755       0.374073484255      -0.262036884012
71 1       1.865108879139       1.921554720727       1.286877450141      -0.422728259571      -0.049567799725       0.311914874775
72 1       0.738777866805       1.114229604874       0.921043857230      -0.024656147103      -0.069948629293       0.006365043049
73 1       2.007710975487       1.774552906826       1.443738333663       0.425077168532      -0.320381034830      -0.271118460099
74 1       0.579910786276       1.101908680333       0.907554626798       0.153954777151       0.043576286625      -0.077586486893
75 1       1.348494269552       0.368465116530       1.290553278614      -0.164751112871       0.453870460652      -0.253963591574
76 1       2.064933119644       1.909309095949       1.583000167974      -0.518638378157       0.484516621004      -0.573845223735
77 1       0.582066330003       1.281507893371       0.209352385400       0.040855259715      -0.206433292660      -0.053920184682
78 1      -0.425220355276       1.141738175290       1.227971943164       0.051951535532      -0.283646148439       0.440907752205
79 1       1.317697118239       0.456827706073       1.331954538325       0.202279080458       0.399126529286       0.134620698284
80 1       1.970178345502       1.938271161179       1.946925703732       0.553061660626       0.524396250682       0.684563503453
81 1       2.029861954209       1.771811119490       1.458799180450       0.423578334415      -0.334926953364      -0.250117103296
82 1       2.094504119591       1.922420741577       1.601644249303       0.196184357988      -0.287267469870      -0.213621060198
83 1       2.006564742156       1.949303400323       1.767776785117      -0.281761962810       0.097653081758      -0.233129864713
84 1       1.970070419461       1.693518019850       2.580623930821       0.032190919527       0.282362120069      -0.377710057996
85 1       0.350759543542       1.048138779788       0.531983221688      -0.100035388013      -0.319986453830       0.148208378725
86 1       0.879828068875       1.126775858706      -0.300091088727       0.317027422722       0.006204478441       0.003111366712
87 1       2.073334001880       2.134488786492       2.229726200242      -0.235433283616       0.271506373429      -0.197801617875
88 1       1.962875081450       1.755569454368       2.626792517962       0.010892272276       0.310591970505      -0.469379000870
89 1       1.730085290389       1.996542214889       2.504072496117      -0.054002449778       0.283796815550       0.465088349574
90 1       2.255560621153       1.748632047207       1.651359573698       0.247400025624       0.113061971033      -0.065009437190
91 1       0.647973192904       1.051786467734       0.895358755506      -0.029931096492      -0.050076257314      -0.059136467426
92 1       1.835916177029       1.903456146143       2.073331783433      -0.107607719388      -0.308621334373       0.400536676194
93 1      -0.533425360672       1.129779856744       1.229560256536       0.096184186857      -0.138194084149       0.399683420912
94 1       0.912878122238       0.772802091254      -0.166784175004      -0.296925424320      -0.260621797022      -0.198421990144
95 1       1.938285895468       1.972096783184       1.981575242861       0.575524464907       0.506802687077       0.701459174136
96 1       1.298200138465       0.365987538195       0.986147909944       0.179763601904       0.269947848986       0.160828125070
97 1       0.241679992065       1.266688715291       0.840694447038       0.198318991422       0.307507898572       0.300700381645
98 1       1.827541829150       1.800689256319       1.639904172447       0.499161984042       0.575420597807       0.513474942884
99 1       2.125876932255       1.751297525738       1.474750683506       0.453305470574      -0.669730540072      -0.261707130778
100 1       0.869017726087      -0.209186008293       1.578916149636      -0.100993755947      -0.504807353803      -0.314721132540
101 1       2.057397614011       2.232234597981       1.918925009929      -0.262638875737       0.304328421245      -0.452827330061
102 1       1.073009198158       0.502791375529       0.469882749478      -0.249732792979       0.171442811820      -0.195569526786
103 1       0.892945836990       0.512295205516       1.088284618307       0.006728592578      -0.110925169632       0.040158519420
104 1       1.912831655462       1.872441345900       1.693507567357      -0.178703805645      -0.196284429536       0.073315096001
105 1       1.229211815866       0.525810437308       0.967613871120       0.079548106197      -0.103564184674       0.024650283251
106 1       1.539961889143       2.043728368257       1.689976434004       0.239360804472      -0.061119937901      -0.242604516085
107 1       0.821097708305       1.074976216219      -0.074429720952      -0.309791330043       0.020452097902      -0.318331097478
108 1       0.525371516727       1.220451743107       1.797758522714      -0.174277657391       0.202968415353      -0.433653756481
109 1       1.918412114128       1.702976959902       2.386341472073       0.131725677053      -0.330941298440       0.197769174774
110 1       1.795982904463       1.803699084354       2.325985232491      -0.065819789629      -0.093012406891       0.028318207986
111 1       0.988631867526       0.820830021805       0.025310934941       0.275907654005       0.085913234592       0.247218510718
112 1       0.390172099457       1.485049754879       1.308146043449       0.216300925480       0.231753180275       0.443899334867
113 1       1.113838080596       0.339909844293       0.715836870069      -0.152994085257       0.206651159507      -0.370816560605
114 1       1.000935580259       1.059337965489      -0.143774878680       0.230790139822       0.286621120108      -0.158297234426
115 1       1.963048728814       1.954200408765       2.480878526093      -0.086244092030       0.437216607933      -0.361962494702
116 1       1.973648066140       1.989917286849       1.412367474455      -0.470070399439       0.307532521384      -0.088782860016
117 1       1.692272052649       1.759815250514       1.669032622987       0.513249327717      -0.372325088305      -0.237567695585
118 1       1.944411920398       2.098623746434       1.730655418799       0.157843904849      -0.198048711901      -0.304426378722
119 1       0.908298415641      -0.240807829985       1.616701576772       0.176481048780       0.553630446267      -0.289980855962
120 1       1.235326829497       0.523346774149       0.399524335249       0.061870362743      -0.033742316882      -0.328141853018
121 1       1.944736260333       2.079702654425       1.566261195270       0.525148167082       0.266492958379       0.213020708851
122 1       2.100988906130       1.760137415755       2.551231158888      -0.076134660855       0.529802432119       0.275240763415
123 1       0.201774917531       1.321901712884       0.744463156470      -0.168817549533      -0.185022960085       0.282926526669
124 1       0.561150202851       1.376813804318       1.754605556256      -0.111733929281      -0.081490486141       0.300535934937
125 1       1.786756277625       2.026529221159       1.488376014841      -0.466917670736      -0.491441512984       0.438645347464
126 1       1.163153174757      -0.412547961089       1.094092645491       0.064349987538      -0.424270913271       0.113301126681
127 1       1.847333682697       2.019503399305       2.486104059681       0.155088877173       0.167575020009       0.132722490054
128 1       2.095943172691       1.840162312650       1.854681632020       0.332888806246       0.098770781839       0.064506863119
129 1       1.145861259303      -0.559499818059       1.382413582200      -0.089087754276       0.444900302546       0.104197636654
130 1       1.883255091084       2.023845188152       2.424192388052       0.078751698952       0.212440001382       0.490477206474
131 1       0.355104605769       1.352896275030       0.541265561516      -0.066781407354      -0.361300310469       0.094222748746
132 1       2.060641894647       2.082121925701       2.074072969274       0.086021667110      -0.095777882044       0.029952303893
133 1       1.591429232793       1.935445424922       2.035394295652      -0.266179580275       0.255050832116      -0.242565174399
134 1       1.807461911669       2.042515343396       2.060424964585      -0.533884442397       0.446669399103      -0.779116754655
135 1       1.828397473909       1.887469303375       2.139601154621      -0.149431506778      -0.292158014847       0.401241463191
136 1       1.328190309111       0.525993300987       0.463027384510       0.016068336420       0.177174293677       0.415793212916
137 1      -0.122313341297       1.133260372906       0.957286563007       0.210353135222      -0.250506381455      -0.333904738777
138 1       2.008280378845       1.941130612351       1.861059618449       0.264898784246      -0.323059069225      -0.377552227829
139 1       2.106791998342       2.103491116469       2.198234355436      -0.162260672356       0.216518688283      -0.011807366709
140 1       1.204942473089      -0.053712178409       1.089962231927      -0.196307363771       0.336453184897      -0.258669227372
141 1       0.952969325158       1.082603288913      -0.189339586908      -0.333692930690      -0.167830235538      -0.193507754019
142 1       1.667103898359       2.170479596874       1.452001656850      -0.436993319123      -0.239198115650       0.296255503716
143 1       1.407241366723       0.164957898329       0.794741551683       0.253099364704       0.353960241238       0.190904741540
144 1       2.090531640915       2.005257600864       2.304634924592       0.261322481585       0.447189569326       0.400919428958
145 1       0.435953049860       1.341550917002       1.893743138421       0.208569675738      -0.106580945830      -0.223789186731
146 1       0.344021432319       1.004753235544       1.063105631354      -0.000837723195       0.025431169943       0.005091013919
147 1       2.170071814749       2.100873428213       2.293599165042      -0.234587271068       0.266375604057      -0.215967933339
148 1      -0.031765216264       1.200456506364       1.025980919582      -0.158621296099       0.261297728965      -0.299647626115
149 1      -0.479147990391       1.130319959933       0.932141302082      -0.126891566555      -0.132875491890      -0.453729357460
150 1       1.591399494225       1.940918476034       2.370049710454      -0.036960136776      -0.258205963277      -0.252148721511
151 1       2.121897229031       1.973658670968       1.748582990929      -0.170762825096      -0.000017092712      -0.001697037786
152 1       2.112309790617       2.020603587774       1.667547366016      -0.519659262030       0.575013425893      -0.309090411492
153 1       1.981298971518       1.787666241566       2.341052971729       0.087267200821       0.188986044791       0.244621655468
154 1       1.209789972550       0.660056833330       0.238917473219       0.069233572380       0.029695583267       0.427589668730
155 1       1.070972170378       0.727453317351      -0.369949658733      -0.275806649279      -0.078548983027       0.088888506602
156 1       1.771666939316       1.847019371220       1.441478539454      -0.482383076616      -0.176530742846       0.486565924166
157 1       1.923708485998       1.944194628572       2.177153897232      -0.189185292563      -0.343501868642       0.275675017104
158 1       0.590505891368       1.287958330608       0.359396693687      -0.020972096000      -0.307750507664      -0.073926794163
159 1       1.286146402118       0.701136502188       0.629692541067       0.102205963678       0.166158206399       0.210597873837
160 1       1.401917936269       0.567007464225       1.646034546290       0.190135004433       0.247611926332       0.313961065981
