ITEM: TIMESTEP
0
ITEM: NUMBER OF ATOMS
160
ITEM: BOX BOUNDS pp pp pp
0.0000000000000000e+00 8.2637155969999991e+00
0.0000000000000000e+00 8.2637155969999991e+00
0.0000000000000000e+00 2.4791146791999999e+01
ITEM: ATOMS id type c_pe_atom
1 2      -8.997199029940
2 2      -7.959798299808
3 2      -8.028065314985
4 2      -8.872662231771
5 2      -8.935377893468
6 2      -9.010331737273
7 2      -8.096814289720
8 2      -8.365969254740
9 2      -8.122168133726
10 2      -7.968015769931
11 2      -8.220952092549
12 2      -8.959816213792
13 2      -9.009782204536
14 2      -8.902862557140
15 2      -8.023301786447
16 2      -8.475839272876
17 2      -8.126143847059
18 2      -8.945792539594
19 2      -8.106672980118
20 2      -8.427561049384
21 2      -4.439315790213
22 2      -3.654981169054
23 2      -4.503653604870
24 2      -2.896454280856
25 2      -3.577996570245
26 2      -5.264895725268
27 2      -5.244509090558
28 2      -2.803726490999
29 2      -5.336712329275
30 2      -4.183099111076
31 2      -3.737670890078
32 2      -3.743722502502
33 2      -3.322071396077
34 2      -3.229731994077
35 2      -3.529725238388
36 2      -3.068805649053
37 2      -4.634573926036
38 2      -3.247933111021
39 2      -5.240475939850
40 2      -5.282277418055
41 2      -4.221750634008
42 2      -4.600227883360
43 2      -3.896739102360
44 2      -3.439571062662
45 2      -3.206395350471
46 2      -3.191276537566
47 2      -3.430270793743
48 2      -4.548590239300
49 2      -3.468231482533
50 2      -5.097945462327
51 2      -5.266489143143
52 2      -3.409377564258
53 2      -3.024802285582
54 2      -3.444521174332
55 2      -3.412660649373
56 2      -4.191484537033
57 2      -3.606964939864
58 2      -3.759731308158
59 2      -3.456497605612
60 2      -5.270847133336
61 2      -9.062173890758
62 2      -8.850223154264
63 2      -8.839359800818
64 2      -8.933435530367
65 1      -7.934838228204
66 1      -8.114964655918
67 1      -4.267960474358
68 1      -3.986121530005
69 1      -3.451730106654
70 1      -3.867637810200
71 1      -7.873356138369
72 1      -3.806128696483
73 1      -7.809763040777
74 1      -3.735551542479
75 1      -3.502187411957
76 1      -8.563519704397
77 1      -4.738812971219
78 1      -4.455234698374
79 1      -3.469919050620
80 1      -9.121751849007
81 1      -7.772875453156
82 1      -7.862250419883
83 1      -8.122398717564
84 1      -8.433376710267
85 1      -4.232407046744
86 1      -4.109672356207
87 1      -7.846722953830
88 1      -8.474643538632
89 1      -8.492308110209
90 1      -8.002631253170
91 1      -3.782268393853
92 1      -7.495739849856
93 1      -4.418227661066
94 1      -3.688820130824
95 1      -9.234594004255
96 1      -3.781678096773
97 1      -3.843025574877
98 1      -8.529957325666
99 1      -8.506140698764
100 1      -4.228002392036
101 1      -7.580515380848
102 1      -3.958280208845
103 1      -4.389895313402
104 1      -8.030870526282
105 1      -3.812751535755
106 1      -7.871179353150
107 1      -3.763442735078
108 1      -3.857032645056
109 1      -8.414417735569
110 1      -7.737747009578
111 1      -3.786107522063
112 1      -3.459438981040
113 1      -4.433917429893
114 1      -3.768412207192
115 1      -8.123060893329
116 1      -7.914233023645
117 1      -8.250097550964
118 1      -7.893113060514
119 1      -4.372184834844
120 1      -4.662261084156
121 1      -8.074762653952
122 1      -8.575970438136
123 1      -4.056662300750
124 1      -3.437054753637
125 1      -8.433037735465
126 1      -3.940275676863
127 1      -8.245496578112
128 1      -8.353403389260
129 1      -4.503646875164
130 1      -8.036084758775
131 1      -4.500452619729
132 1      -8.003933503076
133 1      -8.292175791028
134 1      -9.208201476579
135 1      -7.573623043155
136 1      -4.756459421972
137 1      -3.696385314240
138 1      -7.601739576666
139 1      -8.120837789765
140 1      -3.745056029035
141 1      -4.170972805721
142 1      -8.028085127978
143 1      -3.934074320388
144 1      -7.797785014641
145 1      -3.311039266873
146 1      -4.410556163409
147 1      -7.982619168513
148 1      -3.847480690539
149 1      -3.854911488653
150 1      -8.379269849764
151 1      -7.990396849651
152 1      -8.591882441923
153 1      -7.765223432142
154 1      -4.470846959041
155 1      -3.655111232281
156 1      -7.637651370652
157 1      -7.716785345785
158 1      -4.667230647268
159 1      -3.922347244165
160 1      -3.898650748529
