ITEM: TIMESTEP
0
ITEM: NUMBER OF ATOMS
30
ITEM: BOX BOUNDS xy xz yz pp pp pp
-2.5369215065000001e+00 5.0738430330000002e+00 -2.5369215065000001e+00
0.0000000000000000e+00 4.3940773809999998e+00 0.0000000000000000e+00
0.0000000000000000e+00 1.3659148676999999e+01 0.0000000000000000e+00
ITEM: ATOMS id type x y z fx fy fz
1 2       0.000000000000       0.000000000000       1.968820000000       0.000030943955      -0.000053240103      -0.024764696800
2 2       0.000000007000       2.929380000000       0.307710000000       0.000028789919       0.000055187869       0.024717258650
3 2       2.536920003500       1.464690000000       2.584220000000       0.000055492527       0.000004529085       0.024863602772
4 2       0.000000007000       2.929380000000       4.245350000000       0.000005260780       0.000051090381      -0.024758658545
5 2       2.536920003500       1.464690000000       6.521870000000      -0.000000834131       0.000002107984      -0.024798884663
6 2       0.000000000000       0.000000000000       4.860750000000      -0.000020976482      -0.000046343424       0.024848008949
7 2       0.000000007000       2.929380000000       7.137280000000      -0.000003057704       0.000045009461       0.024747091862
8 2       0.000000000000       0.000000000000       8.798390000000      -0.000006510388      -0.000046315602      -0.024765248906
9 2       0.000000007000       2.929380000000      11.074920000000      -0.000020539697       0.000060144715      -0.024765145459
10 2       2.536920003500       1.464690000000       9.413800000000       0.000011515340      -0.000006524598       0.024787747753
11 2       0.000000000000       0.000000000000      11.690330000000      -0.000018991147      -0.000045392416       0.024769514497
12 2       2.536920003500       1.464690000000      13.351440000000       0.000007526897       0.000011086750      -0.024774213016
13 1      -0.768699996818       1.331430000000       3.414790000000       0.021660905627      -0.037584200348      -0.000047806287
14 1       1.537410000000       0.000000000000       3.414790000000      -0.043422432890      -0.000039144867      -0.000016356572
15 1       1.768220007318       3.062640000000       3.414790000000       0.021695328984       0.037603179530      -0.000025698901
16 1       3.305630000318       0.133260000000       1.138260000000      -0.021733692700       0.037551135380       0.000037311284
17 1       3.305630006682       2.796120000000       1.138260000000      -0.021786313629      -0.037517058091       0.000086758119
18 1       0.999520003500       1.464690000000       1.138260000000       0.043387290521      -0.000025180608       0.000054353289
19 1       1.768220006682       2.796120000000       7.967830000000       0.021716155257      -0.037545906033       0.000107731316
20 1       4.074330003500       1.464690000000       7.967830000000      -0.043443302063      -0.000023516903       0.000108841330
21 1       1.768220000318       0.133260000000       7.967830000000       0.021671797866       0.037570545720       0.000112520733
22 1       0.768700003818       1.597950000000       5.691320000000      -0.021717212220       0.037593867457      -0.000098169614
23 1       0.768700010182       4.260820000000       5.691320000000      -0.021639397649      -0.037687623192      -0.000124359966
24 1      -1.537409993000       2.929380000000       5.691320000000       0.043441821029       0.000095436718      -0.000124818073
25 1      -0.768699989818       4.260820000000      12.520890000000       0.021615989123      -0.037662737543      -0.000085634995
26 1       1.537400007000       2.929380000000      12.520890000000      -0.043353995726       0.000058888963      -0.000063741610
27 1      -0.768709996182       1.597950000000      12.520890000000       0.021800244014       0.037591361448      -0.000072571118
28 1       3.305620007318       3.062640000000      10.244360000000      -0.021636644910       0.037618848309       0.000035646324
29 1       0.768700003182       1.331430000000      10.244360000000      -0.021660828504      -0.037586260371       0.000000562476
30 1       3.536440000000       0.000000000000      10.244360000000       0.043335668001      -0.000042975669       0.000009055173
