ITEM: TIMESTEP
0
ITEM: NUMBER OF ATOMS
30
ITEM: BOX BOUNDS xy xz yz pp pp pp
-2.5369215065000001e+00 5.0738430330000002e+00 -2.5369215065000001e+00
0.0000000000000000e+00 4.3940773809999998e+00 0.0000000000000000e+00
0.0000000000000000e+00 1.3659148676999999e+01 0.0000000000000000e+00
ITEM: ATOMS id type v_vir_xx v_vir_yy v_vir_zz v_vir_xy v_vir_xz v_vir_yz
1 2      -3.371892628143      -3.371882633651      -2.245739618466      -0.000013132538      -0.000007226544       0.000013132109
2 2      -3.371971905427      -3.371929166456      -2.245860939640       0.000033257762       0.000022873379       0.000009636315
3 2      -3.371869301032      -3.371865474110      -2.245724940655       0.000003828595      -0.000003604245       0.000010400464
4 2      -3.371799119247      -3.371827437888      -2.245698165871       0.000018699816      -0.000018544594      -0.000014908476
5 2      -3.371954087172      -3.371941955294      -2.245948167966       0.000020377325       0.000005565687       0.000003553045
6 2      -3.371794253932      -3.371840358506      -2.245680660911       0.000003012037      -0.000020670811      -0.000019352398
7 2      -3.371931887427      -3.371944418173      -2.245983737051       0.000010247353       0.000005993556       0.000008491279
8 2      -3.371935358959      -3.371928780943      -2.245727142031      -0.000004868200      -0.000008825193       0.000010394631
9 2      -3.371863771763      -3.371868917847      -2.245682156047       0.000022632284       0.000013223697      -0.000016354728
10 2      -3.371930607102      -3.371893737793      -2.245767354913      -0.000021710490      -0.000002004960      -0.000001364663
11 2      -3.371879766562      -3.371871677284      -2.245656318574      -0.000001478958       0.000010180175      -0.000014821679
12 2      -3.372009478544      -3.371944463937      -2.245890275605      -0.000007250614       0.000025751846      -0.000003617599
13 1       1.948493305973       2.796924282880       1.640990669334      -0.734786493105       0.618668673066       0.357172866149
14 1       3.221150297885       1.524279751062       1.640994509640      -0.000013797456      -0.000002454883      -0.714358375905
15 1       1.948503353952       2.796940483284       1.640998794077       0.734763014092      -0.618657505395       0.357179066560
16 1       1.948543264738       2.796967347325       1.640995190607      -0.734779527313       0.618647544769       0.357186332886
17 1       1.948508632471       2.796989351506       1.641009170155       0.734763952766      -0.618639679784       0.357196761443
18 1       3.221152912608       1.524295042634       1.641010347141       0.000010545289      -0.000005956835      -0.714359507388
19 1       1.948483778200       2.796978544605       1.641004199229      -0.734761185888       0.618655618235       0.357190705342
20 1       3.221144654095       1.524285050479       1.640986844419      -0.000015538035       0.000006119597      -0.714349269291
21 1       1.948505297309       2.796954980050       1.641012072252       0.734773291324      -0.618658859456       0.357180090074
22 1       1.948417937369       2.796930090273       1.640990826525      -0.734765090203       0.618653436814       0.357184396387
23 1       1.948500322494       2.796872383330       1.640987485301       0.734780254875      -0.618666097280       0.357161759275
24 1       3.221139490418       1.524251156388       1.640991055635      -0.000056134303       0.000015738455      -0.714358536545
25 1       1.948554382063       2.796915920557       1.641016386019      -0.734806965855       0.618648958362       0.357157881104
26 1       3.221206643616       1.524271234618       1.641018951359       0.000050607672      -0.000009041349      -0.714364353062
27 1       1.948457269762       2.796936885946       1.640996343868       0.734747055770      -0.618638653774       0.357189925245
28 1       1.948542669781       2.796952552303       1.641017793593      -0.734769398058       0.618655959745       0.357174365013
29 1       1.948510446509       2.796947914703       1.641013370615       0.734768911570      -0.618654393710       0.357174085592
30 1       3.221230697376       1.524302890865       1.641011179889       0.000031096730      -0.000005298785      -0.714367441044
