ITEM: TIMESTEP
0
ITEM: NUMBER OF ATOMS
30
ITEM: BOX BOUNDS xy xz yz pp pp pp
-2.5369215065000001e+00 5.0738430330000002e+00 -2.5369215065000001e+00
0.0000000000000000e+00 4.3940773809999998e+00 0.0000000000000000e+00
0.0000000000000000e+00 1.3659148676999999e+01 0.0000000000000000e+00
ITEM: ATOMS id type c_pe_atom
1 2      -4.520771764305
2 2      -4.520666950317
3 2      -4.520779512344
4 2      -4.520806112181
5 2      -4.520539357018
6 2      -4.520780604831
7 2      -4.520595631634
8 2      -4.520727675680
9 2      -4.520804345318
10 2      -4.520764736602
11 2      -4.520762277347
12 2      -4.520621762079
13 1      -6.886792064992
14 1      -6.886747307625
15 1      -6.886754194830
16 1      -6.886860706526
17 1      -6.886821803122
18 1      -6.886812080376
19 1      -6.886910238004
20 1      -6.886858448315
21 1      -6.886892954933
22 1      -6.886877128754
23 1      -6.886865517123
24 1      -6.886882655492
25 1      -6.886789646997
26 1      -6.886857338934
27 1      -6.886806301994
28 1      -6.886749575938
29 1      -6.886754784227
30 1      -6.886815780328
