ITEM: TIMESTEP
0
ITEM: NUMBER OF ATOMS
40
ITEM: BOX BOUNDS pp pp pp
0.0000000000000000e+00 8.8021311939999993e+00
0.0000000000000000e+00 5.1257573089999999e+00
0.0000000000000000e+00 9.4185390170000005e+00
ITEM: ATOMS id type c_pe_atom
1 2      -4.779804512457
2 2      -4.779791890279
3 2      -4.391251521928
4 2      -4.391244813661
5 2      -4.897833719684
6 2      -4.730274694199
7 2      -4.730274186455
8 2      -4.897834227448
9 2      -4.391430005801
10 2      -4.391424725442
11 2      -4.778352656513
12 2      -4.778351505849
13 2      -4.899016518073
14 2      -4.729990990162
15 2      -4.729987836989
16 2      -4.899021365715
17 1     -11.205425027044
18 1     -11.200633373928
19 1     -11.133585584792
20 1     -10.592123062689
21 1     -11.205426210260
22 1     -11.111782419688
23 1     -11.133583061580
24 1     -10.592127794952
25 1     -11.111331093440
26 1     -11.205539672767
27 1     -10.591551698156
28 1     -11.133541751151
29 1     -11.201490056312
30 1     -11.205521835093
31 1     -11.067784146112
32 1     -11.067654287220
33 1     -11.201487843871
34 1     -11.111780232199
35 1     -11.067781605174
36 1     -11.067660616079
37 1     -11.111324812782
38 1     -11.200647232101
39 1     -10.591529138679
40 1     -11.133545733036
