80
Config_type=bulk_delta_phase Weight=1.0 Lattice="9.373300777 0.000000000 0.000000000 0.000000000 9.373300777 0.000000000 0.000000000 0.000000000 9.373300777" Energy=-680.11573960 Virial="11.37821 -0.00007 0.00001 -0.00007 11.37823 0.00007 0.00001 0.00007 11.37833" pbc="T T T" Properties=species:S:1:pos:R:3:forces:R:3
Ga	      7.02998      2.34333      2.34333        -0.000061     -0.000131     -0.000129
Ga	      7.02998      4.35228      4.68665        -0.000034      0.008119      0.000058
Ga	      0.00000      7.02998      0.33437         0.000042     -0.000042     -0.008043
Ga	      0.00000      2.34333      4.35228         0.000068     -0.000116      0.008123
Ga	      0.33437      0.00000      7.02998        -0.008055      0.000049     -0.000043
Ga	      0.33437      4.68665      2.34333        -0.008024      0.000075     -0.000119
Ga	      2.34333      4.35228      0.00000        -0.000117      0.008122      0.000064
Ga	      2.34333      7.02998      2.34333        -0.000133     -0.000065     -0.000128
Ga	      2.34333      2.34333      2.34333        -0.000082     -0.000076     -0.000076
Ga	      2.34333      2.34333      7.02998        -0.000129     -0.000132     -0.000070
Ga	      2.34333      0.33437      4.68665        -0.000123     -0.008015      0.000086
Ga	      4.35228      0.00000      2.34333         0.008114      0.000063     -0.000109
Ga	      4.35228      4.68665      7.02998         0.008134      0.000069     -0.000034
Ga	      4.68665      2.34333      0.33437         0.000087     -0.000120     -0.008019
Ga	      4.68665      7.02998      4.35228         0.000060     -0.000044      0.008128
Ga	      7.02998      0.33437      0.00000        -0.000046     -0.008051      0.000044
Ga	      2.34333      7.02998      7.02998        -0.000090     -0.000054     -0.000068
Ga	      2.34333      9.03894      0.00000        -0.000093      0.007970      0.000011
Ga	      4.68665      2.34333      5.02102         0.000037     -0.000087     -0.008002
Ga	      4.68665      7.02998      9.03894         0.000054     -0.000076      0.007987
Ga	      5.02102      4.68665      2.34333        -0.007998      0.000032     -0.000088
Ga	      5.02102      0.00000      7.02998        -0.008036      0.000035     -0.000066
Ga	      7.02998      9.03894      4.68665        -0.000076      0.007985      0.000051
Ga	      7.02998      2.34333      7.02998        -0.000066     -0.000094     -0.000048
Ga	      7.02998      7.02998      7.02998        -0.000073     -0.000065     -0.000066
Ga	      7.02998      7.02998      2.34333        -0.000055     -0.000073     -0.000095
Ga	      7.02998      5.02102      0.00000        -0.000066     -0.008025      0.000037
Ga	      9.03894      4.68665      7.02998         0.007983      0.000049     -0.000066
Ga	      9.03894      0.00000      2.34333         0.007973      0.000016     -0.000091
Ga	      0.00000      7.02998      5.02102         0.000038     -0.000067     -0.008035
Ga	      0.00000      2.34333      9.03894         0.000014     -0.000090      0.007974
Ga	      2.34333      5.02102      4.68665        -0.000085     -0.008000      0.000029
O	      8.29272      5.72331      1.47957         0.003594     -0.002003      0.003256
O	      8.29272      3.64999      3.20708         0.003584      0.002063     -0.003217
O	      8.33664      1.47957      1.08058         0.002007      0.003238     -0.003525
O	      8.33664      3.20708      5.76723         0.002021     -0.003202     -0.003565
O	      1.03666      3.20708      1.08058        -0.001930     -0.003214     -0.003504
O	      1.03666      1.47957      5.76723        -0.001984      0.003238     -0.003544
O	      1.08058      8.33664      1.47957        -0.003498      0.002015      0.003248
O	      1.08058      1.03666      3.20708        -0.003468     -0.001971     -0.003237
O	      1.47957      5.76723      1.03666         0.003283     -0.003564     -0.002003
O	      1.47957      3.60607      3.64999         0.003298      0.003620      0.002035
O	      1.47957      1.08058      8.33664         0.003248     -0.003532      0.002023
O	      1.47957      8.29272      5.72331         0.003254      0.003608     -0.002007
O	      3.20708      3.60607      5.72331        -0.003215      0.003619     -0.002013
O	      3.20708      1.08058      1.03666        -0.003221     -0.003488     -0.001955
O	      3.20708      8.29272      3.64999        -0.003218      0.003607      0.002037
O	      3.20708      5.76723      8.33664        -0.003243     -0.003604      0.002041
O	      3.60607      3.64999      1.47957         0.003587      0.002029      0.003245
O	      3.60607      5.72331      3.20708         0.003582     -0.002002     -0.003211
O	      3.64999      1.47957      3.60607         0.002036      0.003256      0.003595
O	      3.64999      3.20708      8.29272         0.002036     -0.003196      0.003624
O	      5.72331      1.47957      8.29272        -0.002011      0.003245      0.003621
O	      5.72331      3.20708      3.60607        -0.002004     -0.003213      0.003607
O	      5.76723      8.33664      3.20708        -0.003560      0.002038     -0.003220
O	      5.76723      1.03666      1.47957        -0.003564     -0.001995      0.003257
O	      3.60607      1.03666      6.16622         0.003619     -0.002023      0.003265
O	      3.60607      8.33664      7.89374         0.003609      0.002084     -0.003324
O	      3.64999      6.16622      5.76723         0.002042      0.003247     -0.003592
O	      3.64999      7.89374      1.08058         0.002006     -0.003300     -0.003504
O	      5.72331      7.89374      5.76723        -0.002013     -0.003319     -0.003589
O	      5.72331      6.16622      1.08058        -0.001971      0.003256     -0.003493
O	      5.76723      3.64999      6.16622        -0.003587      0.002065      0.003255
O	      5.76723      5.72331      7.89374        -0.003574     -0.002034     -0.003344
O	      6.16622      1.08058      5.72331         0.003258     -0.003522     -0.001999
O	      6.16622      8.29272      8.33664         0.003280      0.003654      0.002082
O	      6.16622      5.76723      3.64999         0.003277     -0.003579      0.002051
O	      6.16622      3.60607      1.03666         0.003263      0.003608     -0.002021
O	      7.89374      8.29272      1.03666        -0.003339      0.003617     -0.002028
O	      7.89374      5.76723      5.72331        -0.003335     -0.003586     -0.002027
O	      7.89374      3.60607      8.33664        -0.003321      0.003635      0.002069
O	      7.89374      1.08058      3.64999        -0.003343     -0.003544      0.002024
O	      8.29272      8.33664      6.16622         0.003632      0.002086      0.003261
O	      8.29272      1.03666      7.89374         0.003622     -0.002041     -0.003316
O	      8.33664      6.16622      8.29272         0.002078      0.003254      0.003633
O	      8.33664      7.89374      3.60607         0.002045     -0.003318      0.003622
O	      1.03666      6.16622      3.60607        -0.001992      0.003266      0.003620
O	      1.03666      7.89374      8.29272        -0.002021     -0.003306      0.003614
O	      1.08058      3.64999      7.89374        -0.003511      0.002039     -0.003301
O	      1.08058      5.72331      6.16622        -0.003502     -0.001990      0.003255
