ITEM: TIMESTEP
0
ITEM: NUMBER OF ATOMS
160
ITEM: BOX BOUNDS pp pp pp
0.0000000000000000e+00 8.3282925250000002e+00
0.0000000000000000e+00 8.3282925250000002e+00
0.0000000000000000e+00 2.4984877573999999e+01
ITEM: ATOMS id type c_pe_atom
1 2      -4.488308251988
2 2      -4.304491822149
3 2      -4.301038318208
4 2      -4.444973161229
5 2      -4.431433144562
6 2      -4.502322447992
7 2      -4.355959003916
8 2      -4.318750013483
9 2      -4.337626704498
10 2      -4.299114225203
11 2      -4.298999049425
12 2      -4.435155296854
13 2      -4.485664854739
14 2      -4.423887995175
15 2      -4.301544870082
16 2      -4.326460070888
17 2      -4.372911271753
18 2      -4.493993459965
19 2      -4.357308108037
20 2      -4.326835822733
21 2      -4.885896111249
22 2      -4.793222902093
23 2      -4.985493218496
24 2      -4.654234758438
25 2      -4.798938086590
26 2      -5.101369244339
27 2      -5.075295419597
28 2      -4.624066414261
29 2      -5.064280307972
30 2      -4.916747970363
31 2      -4.797323548719
32 2      -4.786447431696
33 2      -4.742482270499
34 2      -4.697792759958
35 2      -4.754485600767
36 2      -4.701854031321
37 2      -4.945753293709
38 2      -4.715048876812
39 2      -5.062109450492
40 2      -5.079530141026
41 2      -4.785857957025
42 2      -4.890961623928
43 2      -4.812314831411
44 2      -4.740308879964
45 2      -4.706126433997
46 2      -4.689299091674
47 2      -4.759512703839
48 2      -4.921116723503
49 2      -4.756630321471
50 2      -5.084095876252
51 2      -5.101118347222
52 2      -4.754590472739
53 2      -4.688010463049
54 2      -4.757072793325
55 2      -4.746363232138
56 2      -4.754114224555
57 2      -4.803197629979
58 2      -4.790810666677
59 2      -4.742934876668
60 2      -5.071666952503
61 2      -4.669637654921
62 2      -4.625423550523
63 2      -4.641975926097
64 2      -4.646831835420
65 1     -11.103067804479
66 1     -11.152645350841
67 1     -11.047805409515
68 1     -11.084993926894
69 1     -11.069732823437
70 1     -10.950926407237
71 1     -11.082576218148
72 1     -10.696257944279
73 1     -11.035840527159
74 1     -10.684056219605
75 1     -11.038458309854
76 1     -11.012066399421
77 1     -11.247550104967
78 1     -11.040161445027
79 1     -11.043579485673
80 1     -10.998144411778
81 1     -11.031916105721
82 1     -11.111882889689
83 1     -11.021495664479
84 1     -11.060543724809
85 1     -11.270000488603
86 1     -11.095464413492
87 1     -11.125123163125
88 1     -11.054836414396
89 1     -11.045743479706
90 1     -11.101352701773
91 1     -10.690644452128
92 1     -11.125827471705
93 1     -11.039037757634
94 1     -11.090064150650
95 1     -10.995341087187
96 1     -10.950612307493
97 1     -10.950518499706
98 1     -10.941951223109
99 1     -11.024448546326
100 1     -11.028065898543
101 1     -11.111763723938
102 1     -10.680616502829
103 1     -10.644605532329
104 1     -11.044576207446
105 1     -10.690280262358
106 1     -11.055620558439
107 1     -11.079341444396
108 1     -10.995320087726
109 1     -11.067953495528
110 1     -11.160322120690
111 1     -11.099785510282
112 1     -11.036347380552
113 1     -11.255213897823
114 1     -11.102688300227
115 1     -11.079809697856
116 1     -11.068810841110
117 1     -11.086613095891
118 1     -11.104392908351
119 1     -11.058730508893
120 1     -11.261251693535
121 1     -11.063927848376
122 1     -11.057304780435
123 1     -10.952350686684
124 1     -11.047592113426
125 1     -11.013954283151
126 1     -11.114508866095
127 1     -11.143829022250
128 1     -11.104431420256
129 1     -11.045813438204
130 1     -11.073673484444
131 1     -11.246403250178
132 1     -11.135385044868
133 1     -11.088679409127
134 1     -10.994285947523
135 1     -11.116915949886
136 1     -11.220087925654
137 1     -10.955630288693
138 1     -11.097237567373
139 1     -11.145162640319
140 1     -10.964481394434
141 1     -11.079862175420
142 1     -11.092114596340
143 1     -10.980941017572
144 1     -11.107833207906
145 1     -11.050837582644
146 1     -10.643002210981
147 1     -11.119994835661
148 1     -10.972137379099
149 1     -11.139511973614
150 1     -11.056451233155
151 1     -11.086255225183
152 1     -11.010827727521
153 1     -11.155075375906
154 1     -11.249966379638
155 1     -10.991050759697
156 1     -11.022517992508
157 1     -11.113136849241
158 1     -11.246419471931
159 1     -10.688319221400
160 1     -10.976516108047
