ITEM: TIMESTEP
0
ITEM: NUMBER OF ATOMS
30
ITEM: BOX BOUNDS xy xz yz pp pp pp
-2.5571763789999999e+00 5.1143527579999999e+00 -2.5571763789999999e+00
0.0000000000000000e+00 4.4291598350000001e+00 0.0000000000000000e+00
0.0000000000000000e+00 1.3768203757000000e+01 0.0000000000000000e+00
ITEM: ATOMS id type x y z fx fy fz
1 2       0.000000000000       0.000000000000       1.984540000000       0.000036776614       0.000020053945      -0.063671508846
2 2      -0.000000000000       2.952770000000       0.310170000000       0.000037572212       0.000061486039       0.063573536022
3 2       2.557180000000       1.476390000000       2.604860000000      -0.000052202869      -0.000053453048       0.063606649019
4 2      -0.000000000000       2.952770000000       4.279240000000       0.000013101351       0.000047080489      -0.063555747548
5 2       2.557180000000       1.476390000000       6.573940000000      -0.000046612334      -0.000061261272      -0.063613303931
6 2       0.000000000000       0.000000000000       4.899560000000       0.000007290411      -0.000017879598       0.063708449697
7 2      -0.000000000000       2.952770000000       7.194270000000       0.000038903450       0.000065947815       0.063559955096
8 2       0.000000000000       0.000000000000       8.868640000000       0.000036639307       0.000015175888      -0.063652166470
9 2      -0.000000000000       2.952770000000      11.163350000000      -0.000011909262       0.000047521542      -0.063657244288
10 2       2.557180000000       1.476390000000       9.488960000000      -0.000057066100      -0.000052771711       0.063625753096
11 2       0.000000000000       0.000000000000      11.783660000000       0.000006147016      -0.000018322656       0.063681205007
12 2       2.557180000000       1.476390000000      13.458040000000      -0.000047353695      -0.000059295065      -0.063584868132
13 1       4.339510000000       1.342060000000       3.442050000000       0.028989451138      -0.050065628750       0.000035968472
14 1       1.549680000000       0.000000000000       3.442050000000      -0.057842472938       0.000003664961       0.000027468839
15 1       1.782340000000       3.087100000000       3.442050000000       0.028880542014       0.050073610809       0.000049936622
16 1       3.332020000000       0.134320000000       1.147350000000      -0.028949865442       0.050170428655       0.000033697967
17 1       3.332020000000       2.818450000000       1.147350000000      -0.028962127021      -0.050129814143       0.000040781789
18 1       1.007500000000       1.476390000000       1.147350000000       0.057853274198      -0.000063635134       0.000074320085
19 1       1.782340000000       2.818450000000       8.031450000000       0.028918878298      -0.050139571730       0.000037802496
20 1       4.106860000000       1.476390000000       8.031450000000      -0.057894727677      -0.000069752354       0.000089661141
21 1       1.782340000000       0.134320000000       8.031450000000       0.028893847526       0.050186318250       0.000066643385
22 1       0.774840000000       1.610710000000       5.736760000000      -0.028940288023       0.050111699935      -0.000109771539
23 1       0.774840000000       4.294840000000       5.736760000000      -0.028888971001      -0.050181868477      -0.000118360142
24 1      -1.549680000000       2.952770000000       5.736760000000       0.057871476763       0.000087986039      -0.000135624265
25 1      -0.774840000000       4.294840000000      12.620860000000       0.028904390939      -0.050177195880      -0.000087566700
26 1       1.549680000000       2.952770000000      12.620860000000      -0.057854829998       0.000081197837      -0.000107583089
27 1      -0.774840000000       1.610710000000      12.620860000000       0.028964932626       0.050110218077      -0.000094576912
28 1       3.332010000000       3.087100000000      10.326150000000      -0.028829732387       0.050083236617       0.000085412043
29 1       0.774840000000       1.342060000000      10.326150000000      -0.028945164614      -0.050064223180       0.000038974582
30 1       3.564670000000       0.000000000000      10.326150000000       0.057870099498      -0.000010953901       0.000052106504
