ITEM: TIMESTEP
0
ITEM: NUMBER OF ATOMS
20
ITEM: BOX BOUNDS xy xz yz pp pp pp
-1.4041650886670001e+00 1.2585051584328999e+01 0.0000000000000000e+00
0.0000000000000000e+00 3.1165781429999999e+00 -1.4041650886670001e+00
0.0000000000000000e+00 5.7697733267649998e+00 0.0000000000000000e+00
ITEM: ATOMS id type x y z fx fy fz
1 2       1.551756833649       1.558290000000       1.810088156561      -0.209302098999      -0.000012737395      -0.175635166195
2 2       3.336603202603       0.000000000000       3.959681870855       0.209323744455       0.000012737407       0.175643100857
3 2       0.010135261565       0.000000000000       4.585232605285      -0.019193719274       0.000012318620      -0.028465165858
4 2       4.878224774687       1.558290000000       1.184537422131       0.019275316462      -0.000012318252       0.028478549970
5 2       7.844282314446       0.000000000000       1.810083394894      -0.209277790104       0.000012737273      -0.175471223594
6 2       9.629126318760       1.558290000000       3.959686825591       0.209382061960      -0.000012737280       0.175464572245
7 2       6.302658377722       1.558290000000       4.585237560021      -0.019180154811      -0.000012318622      -0.028506164241
8 2      11.170750255484       0.000000000000       1.184532660464       0.019271661088       0.000012318242       0.028548748748
9 1       5.875524535543       0.000000000000       1.481298931590       0.101873068214       0.000015302093       0.068280429178
10 1      -0.987154782889       1.558290000000       4.288473460466      -0.102136320315      -0.000015302468      -0.068307140145
11 1       1.396742639299       0.000000000000       3.264551072056      -0.054087790083       0.000005283687       0.019507133978
12 1       3.491617396953       1.558290000000       2.505218955360       0.054139557475      -0.000005283658      -0.019498927986
13 1       3.009876005968       1.558290000000       5.138514038163      -0.002238730805      -0.000012706575      -0.060242800039
14 1       1.878484030284       0.000000000000       0.631255989254       0.002256694038       0.000012706595       0.060258860093
15 1      12.168047651701       1.558290000000       1.481303886326       0.101914058425      -0.000015302050       0.068231123529
16 1       5.305368333269       0.000000000000       4.288478415202      -0.102086257567       0.000015302463      -0.068324660868
17 1       7.689265755456       1.558290000000       3.264556026792      -0.054080017089      -0.000005283584       0.019482929598
18 1       9.784142877749       0.000000000000       2.505214193694       0.054109400011       0.000005283555      -0.019461475644
19 1       9.302401486765       0.000000000000       5.138509276496      -0.002245985414       0.000012706549      -0.060136870617
20 1       8.171007146441       1.558290000000       0.631260943990       0.002283302335      -0.000012706602       0.060154146992
