ITEM: TIMESTEP
0
ITEM: NUMBER OF ATOMS
20
ITEM: BOX BOUNDS xy xz yz pp pp pp
-1.4041650886670001e+00 1.2585051584328999e+01 0.0000000000000000e+00
0.0000000000000000e+00 3.1165781429999999e+00 -1.4041650886670001e+00
0.0000000000000000e+00 5.7697733267649998e+00 0.0000000000000000e+00
ITEM: ATOMS id type c_pe_atom
1 2      -5.155800915196
2 2      -5.155802502611
3 2      -4.680817284192
4 2      -4.680821299521
5 2      -5.155794995656
6 2      -5.155800452699
7 2      -4.680814915608
8 2      -4.680824267642
9 1     -11.021733224770
10 1     -11.021726333869
11 1     -10.846201669980
12 1     -10.846204983015
13 1     -10.928416087787
14 1     -10.928413218097
15 1     -11.021729200446
16 1     -11.021732975767
17 1     -10.846193439693
18 1     -10.846194852527
19 1     -10.928432335201
20 1     -10.928427858427
