ITEM: TIMESTEP
0
ITEM: NUMBER OF ATOMS
40
ITEM: BOX BOUNDS pp pp pp
0.0000000000000000e+00 8.7845269320000003e+00
0.0000000000000000e+00 5.1155057939999997e+00
0.0000000000000000e+00 9.3997019389999998e+00
ITEM: ATOMS id type c_pe_atom
1 2      -4.745302486001
2 2      -4.745296179929
3 2      -4.350455726113
4 2      -4.350452429061
5 2      -4.867987618419
6 2      -4.694198489802
7 2      -4.694200069206
8 2      -4.867995232574
9 2      -4.350443794938
10 2      -4.350441350390
11 2      -4.744094497320
12 2      -4.744099900517
13 2      -4.869372562868
14 2      -4.694062317448
15 2      -4.694070079792
16 2      -4.869379765555
17 1     -11.233303483578
18 1     -11.224000434493
19 1     -11.157182305736
20 1     -10.612656977151
21 1     -11.233314608957
22 1     -11.133938431099
23 1     -11.157181936402
24 1     -10.612658391729
25 1     -11.133447044653
26 1     -11.232769708635
27 1     -10.611175619481
28 1     -11.157110832788
29 1     -11.224868275808
30 1     -11.232751947564
31 1     -11.087441173511
32 1     -11.087414171555
33 1     -11.224880949562
34 1     -11.133939914965
35 1     -11.087450413868
36 1     -11.087426179292
37 1     -11.133445025942
38 1     -11.223999917433
39 1     -10.611172852017
40 1     -11.157118662998
