30
Config_type=bulk_alpha_phase Weight=1.0 Lattice="5.154862483 0.000000000 0.000000000 -2.577431241 4.464242289 0.000000000 0.000000000 0.000000000 13.877258836" Energy=-254.67826660 Virial="-19.66594 -0.00004 0.00001 -0.00004 -19.66601 -0.00006 0.00001 -0.00006 -17.15391" pbc="T T T" Properties=species:S:1:pos:R:3:forces:R:3
Ga	      0.00000      0.00000      2.00026         0.000001     -0.000007     -0.003974
Ga	      0.00000      2.97616      0.31262         0.000010      0.000028      0.003893
Ga	      2.57743      1.48808      2.62549         0.000014      0.000011      0.003810
Ga	      0.00000      2.97616      4.31314        -0.000008      0.000008     -0.003885
Ga	      2.57743      1.48808      6.62601         0.000019      0.000002     -0.003822
Ga	      0.00000      0.00000      4.93837        -0.000008      0.000007      0.003936
Ga	      0.00000      2.97616      7.25125         0.000001      0.000019      0.003876
Ga	      0.00000      0.00000      8.93889         0.000015     -0.000019     -0.004002
Ga	      0.00000      2.97616     11.25177         0.000015      0.000015     -0.003923
Ga	      2.57743      1.48808      9.56412         0.000037      0.000012      0.003817
Ga	      0.00000      0.00000     11.87700        -0.000014     -0.000003      0.003952
Ga	      2.57743      1.48808     13.56464         0.000005      0.000007     -0.003820
O	      4.37388      1.35269      3.46931         0.000332     -0.000377      0.000099
O	      1.56196      0.00000      3.46931        -0.000576     -0.000058      0.000105
O	      1.79645      3.11155      3.46931         0.000272      0.000429      0.000073
O	      3.35841      0.13539      1.15643        -0.000268      0.000386      0.000100
O	      3.35841      2.84077      1.15643        -0.000264     -0.000395      0.000127
O	      1.01548      1.48808      1.15643         0.000463      0.000005      0.000130
O	      1.79645      2.84077      8.09506         0.000413     -0.000449      0.000160
O	      4.13939      1.48808      8.09506        -0.000633     -0.000027      0.000138
O	      1.79646      0.13539      8.09506         0.000195      0.000507      0.000136
O	      0.78098      1.62347      5.78220        -0.000359      0.000411     -0.000235
O	      0.78098      4.32886      5.78220        -0.000240     -0.000545     -0.000210
O	     -1.56196      2.97616      5.78220         0.000586      0.000089     -0.000219
O	     -0.78098      4.32886     12.72083         0.000209     -0.000578     -0.000156
O	      1.56195      2.97616     12.72083        -0.000496      0.000115     -0.000161
O	     -0.78098      1.62347     12.72083         0.000356      0.000414     -0.000159
O	     -1.79645      3.11155     10.40794        -0.000332      0.000407      0.000055
O	      0.78098      1.35269     10.40794        -0.000257     -0.000430      0.000081
O	      3.59291      0.00000     10.40794         0.000511      0.000016      0.000080
