ITEM: TIMESTEP
0
ITEM: NUMBER OF ATOMS
30
ITEM: BOX BOUNDS xy xz yz pp pp pp
-2.5267940850000001e+00 5.0535881710000004e+00 -2.5267940850000001e+00
0.0000000000000000e+00 4.3765361530000000e+00 0.0000000000000000e+00
0.0000000000000000e+00 1.3604621138000001e+01 0.0000000000000000e+00
ITEM: ATOMS id type x y z fx fy fz
1 2       0.000000000000       0.000000000000       1.960330000000      -0.000003764894       0.000039929509      -0.089483057655
2 2       0.000000000000       2.917690000000       0.307110000000      -0.000034515763       0.000053117197       0.089327998070
3 2       2.526790000000       1.458850000000       2.574540000000       0.000143403966      -0.000091013760       0.089414181153
4 2       0.000000000000       2.917690000000       4.227770000000       0.000026189210       0.000045405426      -0.089311683543
5 2       2.526790000000       1.458850000000       6.495200000000       0.000010838065      -0.000072150135      -0.089405802115
6 2       0.000000000000       0.000000000000       4.841980000000      -0.000072673055      -0.000025277440       0.089512121029
7 2       0.000000000000       2.917690000000       7.109420000000      -0.000003826216       0.000044998575       0.089342724759
8 2       0.000000000000       0.000000000000       8.762640000000      -0.000011806842       0.000051150256      -0.089485518379
9 2       0.000000000000       2.917690000000      11.030080000000      -0.000056921050       0.000052732212      -0.089302049019
10 2       2.526790000000       1.458850000000       9.376850000000       0.000031754768      -0.000091809267       0.089417849214
11 2       0.000000000000       0.000000000000      11.644290000000      -0.000021747623       0.000004586436       0.089501030094
12 2       2.526790000000       1.458850000000      13.297510000000       0.000077873937      -0.000098594414      -0.089386616498
13 1      -0.765730000000       1.326300000000       3.401160000000      -0.053860033288       0.092931492806      -0.000140440877
14 1       1.531480000000       0.000000000000       3.401160000000       0.107360287478       0.000046009286      -0.000089452084
15 1       1.761060000000       3.050240000000       3.401160000000      -0.053724525891      -0.092979346004      -0.000026945009
16 1       3.292530000000       0.132550000000       1.133710000000       0.053770904006      -0.092968518314       0.000176135238
17 1       3.292530000000       2.785140000000       1.133710000000       0.053654577370       0.093081577028       0.000170121346
18 1       0.995320000000       1.458850000000       1.133710000000      -0.107416266750      -0.000144619869       0.000194281648
19 1       1.761060000000       2.785140000000       7.936020000000      -0.053693366546       0.093074277369       0.000150958663
20 1       4.058270000000       1.458850000000       7.936020000000       0.107386286469      -0.000150264797       0.000204459522
21 1       1.761060000000       0.132550000000       7.936020000000      -0.053814359544      -0.092955408395       0.000201694920
22 1       0.765730000000       1.591390000000       5.668600000000       0.053717247094      -0.092930239712      -0.000080325545
23 1       0.765730000000       4.243990000000       5.668600000000       0.053830188732       0.092911509629      -0.000151450148
24 1      -1.531480000000       2.917690000000       5.668600000000      -0.107362696064       0.000089921620      -0.000139224239
25 1      -0.765740000000       4.243990000000      12.470910000000      -0.053700758807       0.092914729235      -0.000109498264
26 1       1.531480000000       2.917690000000      12.470910000000       0.107266856876       0.000102819413      -0.000143707391
27 1      -0.765740000000       1.591390000000      12.470910000000      -0.053613022984      -0.092940842922      -0.000101833104
28 1       3.292528171000       3.050240000000      10.203470000000       0.053708979399      -0.092992506564      -0.000050737274
29 1       0.765730000000       1.326300000000      10.203470000000       0.053817916867       0.092941181848      -0.000110912835
30 1       3.522110000000       0.000000000000      10.203470000000      -0.107413018920       0.000055153750      -0.000094301679
