ITEM: TIMESTEP
0
ITEM: NUMBER OF ATOMS
30
ITEM: BOX BOUNDS xy xz yz pp pp pp
-2.5267940850000001e+00 5.0535881710000004e+00 -2.5267940850000001e+00
0.0000000000000000e+00 4.3765361530000000e+00 0.0000000000000000e+00
0.0000000000000000e+00 1.3604621138000001e+01 0.0000000000000000e+00
ITEM: ATOMS id type c_pe_atom
1 2      -4.646325379969
2 2      -4.646318633363
3 2      -4.646338152402
4 2      -4.646331698937
5 2      -4.646315343656
6 2      -4.646326149695
7 2      -4.646320148796
8 2      -4.646325212301
9 2      -4.646330083943
10 2      -4.646337312846
11 2      -4.646327307423
12 2      -4.646315807139
13 1     -11.073041362862
14 1     -11.073042489422
15 1     -11.073050359174
16 1     -11.073034820530
17 1     -11.073042369216
18 1     -11.073045492760
19 1     -11.073048598338
20 1     -11.073036990645
21 1     -11.073039549606
22 1     -11.073043880921
23 1     -11.073035664726
24 1     -11.073039118677
25 1     -11.073039652694
26 1     -11.073045573889
27 1     -11.073038490007
28 1     -11.073045932442
29 1     -11.073047814757
30 1     -11.073038640742
