ITEM: TIMESTEP
0
ITEM: NUMBER OF ATOMS
160
ITEM: BOX BOUNDS pp pp pp
0.0000000000000000e+00 8.3410883540000000e+00
0.0000000000000000e+00 8.3410883540000000e+00
0.0000000000000000e+00 2.5023265062000000e+01
ITEM: ATOMS id type x y z fx fy fz
1 2       1.209920000000       5.180460000000      22.001320000000      -0.042157824328       0.052808405059      -0.038450327248
2 2       5.178580000000       0.842630000000      13.620750000000      -0.198167183571      -0.033981008104      -0.029730668371
3 2       7.126110000000       7.374610000000       7.361080000000      -0.121983922206       0.130749261849      -0.050276558189
4 2       7.259750000000       7.104010000000      15.710930000000      -0.013326666483      -0.083863196797       0.073681675893
5 2       5.202230000000       5.232420000000       0.979920000000       0.071912533582       0.251906922500      -0.079556595148
6 2       3.017880000000       3.191010000000       7.183510000000      -0.014087692975      -0.174270707305      -0.001087845950
7 2       0.946210000000       1.045020000000       1.091370000000      -0.119814729802      -0.006058842198      -0.002936426565
8 2       5.149640000000       1.031680000000       5.222480000000       0.016392124181       0.076792435935       0.011300398694
9 2       3.169900000000       2.951580000000      15.587360000000      -0.090457272745       0.048980172492      -0.029240055877
10 2       5.362910000000       1.111080000000      21.829240000000      -0.093950317780       0.030369001047       0.048076808780
11 2       3.122560000000       7.220090000000      11.470580000000      -0.027451519529       0.010485332393      -0.013185950671
12 2       7.390480000000       3.183660000000      19.734920000000       0.158938607283      -0.154414964786      -0.071905676550
13 2       1.013840000000       5.075940000000      13.434850000000       0.071344459213       0.074766523295      -0.018692324692
14 2       7.299100000000       3.208900000000       3.192740000000      -0.071854120873      -0.275498134956       0.067875007015
15 2       5.079460000000       5.318090000000       9.332470000000      -0.131113499770       0.097727881583       0.043874732815
16 2       7.327930000000       7.409540000000      24.011610000000      -0.021575605947      -0.122723130791       0.022872451267
17 2       3.183660000000       7.421360000000      19.856970000000      -0.165307636071      -0.034946555347       0.050132444558
18 2       0.909240000000       1.073830000000       9.481360000000       0.150164397120       0.036569640728       0.014202670146
19 2       3.216520000000       7.396290000000       3.078260000000       0.075593222846       0.026782713495      -0.026914688873
20 2       1.172440000000       1.032430000000      17.753680000000      -0.080334595182       0.032347091861       0.042357319584
21 2       3.912630000000       0.190630000000       8.354190000000       0.207143431141      -0.178945418885       0.025894537709
22 2       6.116080000000       6.088960000000      12.488160000000       0.021557959705      -0.083781077549      -0.041666883704
23 2       2.153740000000       2.129670000000      20.868710000000       0.032402633254      -0.095739936502       0.004586241803
24 2       6.380560000000       6.268830000000      20.817430000000      -0.039603569845      -0.315232215948       0.064235387444
25 2       1.954790000000       6.370500000000       8.250390000000      -0.114007236669       0.061844579331      -0.023643444479
26 2       8.293770000000       2.053630000000       6.217230000000       0.223464366986       0.018495353109      -0.215864067947
27 2       1.984570000000       2.086180000000       4.206700000000      -0.135310872272       0.029513253783       0.159185940401
28 2       0.046200000000       2.004840000000      14.556630000000       0.079188409149       0.372614414589       0.083306609569
29 2       0.166640000000       6.179920000000      18.723140000000       0.013338588757      -0.109569577274      -0.140543504130
30 2       6.248630000000       0.056960000000       2.095340000000      -0.011688781447      -0.021271683771      -0.031634664830
31 2       6.075570000000       0.075730000000      10.489660000000      -0.021147161928       0.014001130757       0.085498106805
32 2       4.163300000000       2.189310000000      18.720640000000       0.031003371711      -0.015226160508      -0.195544262468
33 2       6.384850000000       8.298540000000      18.772290000000       0.138645977523       0.098514246918      -0.112476470556
34 2       6.329720000000       2.047190000000      16.666510000000      -0.057497598861      -0.016501165024       0.280779210687
35 2       0.158210000000       2.062090000000      22.990950000000       0.014103807941       0.089042578795       0.274590127537
36 2       2.024920000000       8.127110000000      14.691510000000      -0.147541580728      -0.018421129309      -0.043784370248
37 2       3.999070000000       6.002900000000      14.605260000000       0.179983364482       0.121298660368       0.012108277697
38 2       6.229350000000       4.191800000000       6.277860000000      -0.068396296309      -0.012680462172      -0.256364826024
39 2       4.191760000000       6.362570000000      22.976960000000      -0.081635762890       0.006582560842       0.216702036671
40 2       0.097330000000       4.171690000000      16.680840000000       0.110613360296       0.036871121429       0.216096562786
41 2       2.080690000000       4.223450000000       2.084060000000      -0.018488366590      -0.014363959233       0.001198565417
42 2       4.124370000000       4.285850000000      20.801290000000       0.042738203225       0.001243387049       0.066504196252
43 2       4.129190000000       8.147440000000      16.744400000000       0.052542591543      -0.022492308296       0.142628502151
44 2       6.274880000000       4.226170000000      22.895840000000       0.078884699340      -0.187032221665       0.099832689720
45 2       8.276850000000       6.180510000000      10.407620000000      -0.030162762527       0.079197318795       0.293178873738
46 2       8.324480000000       8.274900000000      12.534130000000       0.004104082458      -0.137880170188      -0.365982860932
47 2       0.033950000000       4.258060000000       0.037620000000      -0.104034971158       0.049562344443      -0.174397002237
48 2       6.196290000000       4.046900000000      14.569280000000       0.089743287485       0.187720092152      -0.029155382609
49 2       4.118240000000       4.177600000000       4.138420000000       0.102601041453      -0.063582979268       0.216154798983
50 2       2.118990000000       2.027590000000      12.437340000000       0.005371783153       0.202242257005      -0.140796652345
51 2       2.086700000000       4.093610000000      10.438610000000      -0.027445912700      -0.168560867887       0.157879339286
52 2       0.041570000000       6.403190000000       2.188990000000       0.186814999991       0.052631180883      -0.051679504065
53 2       0.203750000000       8.300840000000      20.954090000000       0.016183405693      -0.223685194349      -0.104720320013
54 2       4.107770000000       2.034640000000       1.976340000000      -0.244806644607      -0.036153666599       0.003734048516
55 2       6.178210000000       2.050080000000      24.977540000000       0.027147820150       0.010373328655      -0.267931575122
56 2       8.314850000000       4.127680000000       8.337490000000       0.052898870514      -0.098262310497      -0.014004580123
57 2       6.062800000000       2.159300000000       8.443810000000      -0.054177183781       0.129551246680      -0.044188307382
58 2       4.003540000000       6.398200000000       6.195340000000       0.013900539973      -0.020208763042      -0.114581554368
59 2       6.313130000000       6.394900000000       4.222300000000      -0.021193341707      -0.021621371911       0.237807094417
60 2       2.171540000000       6.358530000000      24.989290000000       0.133090260663       0.015312432711      -0.144440581211
61 2       5.147490000000       3.111650000000      11.511610000000      -0.097021118934      -0.088944929076       0.004442786375
62 2       3.160350000000       1.073030000000      23.960630000000       0.078167062087      -0.020344865631      -0.045850108480
63 2       3.161440000000       5.146950000000      17.719640000000      -0.073434686775       0.067699702320       0.001413895431
64 2       0.984460000000       7.364190000000       5.206440000000      -0.003995862495       0.039916015084       0.027017639688
65 1       2.111010000000       2.138790000000       2.113650000000       0.201081752770      -0.043696435465      -0.133330249076
66 1       6.119740000000       6.208860000000       6.220270000000       0.094555124282      -0.071972320720      -0.086089727116
67 1       4.224030000000       8.282940000000       6.396380000000      -0.045511850415       0.154530081126       0.122608915288
68 1       4.289220000000       0.127080000000       2.064280000000       0.014051584096      -0.043740599772       0.048217289036
69 1       8.226430000000       6.318600000000       4.108830000000       0.061081366588      -0.022705028227       0.096826813800
70 1       0.025690000000       2.157250000000       4.250640000000       0.020705086876       0.030600463542       0.043142675385
71 1       6.177860000000       4.155240000000       8.311230000000       0.099947855592      -0.195679570554       0.024643256902
72 1       1.915870000000       4.411860000000       0.216250000000      -0.043435450427       0.171290399726      -0.002729826755
73 1       8.334240000000       4.332100000000       2.065990000000       0.080767887290       0.026115247421      -0.077025419390
74 1       8.102320000000       4.008620000000       6.472070000000      -0.076644677357      -0.146600391866       0.010681762327
75 1       4.263520000000       2.115840000000       0.051170000000      -0.074955699723       0.016256813806      -0.054167837255
76 1       3.999270000000       6.361360000000       8.210400000000       0.006524474514       0.085117751396      -0.130216983848
77 1       2.104250000000       0.082720000000       4.152230000000       0.016765451087       0.034337067757      -0.057308330019
78 1       6.129000000000       8.291680000000       4.074460000000      -0.017800482583       0.101020846885      -0.076834790576
79 1       2.088030000000       6.348850000000       6.322180000000      -0.097983551835      -0.004281958900      -0.085237352848
80 1       6.196190000000       2.118320000000       2.023050000000       0.067446580831       0.052863448758       0.051657825528
81 1       4.163630000000       4.107700000000       2.103170000000      -0.080119558294      -0.028352904748       0.058789023308
82 1       4.204450000000       4.311530000000       6.149650000000      -0.043249975429       0.008183980947      -0.054874396144
83 1       8.140420000000       2.093850000000       8.321630000000       0.016763224081       0.046608367560       0.055629717910
84 1       0.044760000000       6.277290000000       0.091660000000       0.057921902320      -0.059430478050      -0.091907906986
85 1       8.199830000000       0.066990000000       6.274840000000       0.001523081505       0.002396576802       0.009793355264
86 1       8.207710000000       8.314460000000       2.103520000000      -0.009769655757       0.057863228920      -0.026811676824
87 1       4.222830000000       6.208260000000       4.209940000000      -0.136609800342       0.020461269696       0.188462950154
88 1       4.104870000000       2.160690000000       4.088460000000      -0.033356372423       0.069946080071       0.061424827957
89 1       6.226350000000       2.158600000000       6.327460000000      -0.030796317017      -0.004186908170      -0.042559844592
90 1       2.045810000000       6.305490000000       2.054380000000      -0.137948163212       0.035669921713       0.142919002974
91 1       2.238020000000       4.033440000000       3.950490000000       0.058355817694      -0.170052641680       0.015766734167
92 1       6.133090000000       4.302490000000       4.252610000000      -0.008007862413       0.021867191986      -0.013044517828
93 1       6.347870000000       0.150760000000       0.112490000000       0.040512511781      -0.082538521889       0.079554856497
94 1       2.020060000000       8.293370000000       8.479040000000       0.028097098073       0.068256297568      -0.043861242583
95 1       6.297110000000       6.327620000000       2.149020000000      -0.072277586194      -0.056507383281      -0.025099339629
96 1       1.912590000000       2.142580000000       6.146240000000       0.027102066224       0.022721770459       0.050529678118
97 1       2.022050000000       2.138310000000      10.493590000000      -0.044922977914      -0.030086194397      -0.009416563737
98 1       6.174250000000       6.097060000000      14.525600000000      -0.106531847051       0.022534728594      -0.018977610713
99 1       4.090460000000       8.150490000000      14.735050000000       0.035583757525      -0.050625081510       0.181519125878
100 1       4.188980000000       8.183960000000      10.301170000000      -0.156528978902       0.041536742074      -0.118158024905
101 1       8.196760000000       6.260630000000      12.422020000000       0.046470796529       0.019959758713      -0.093553218796
102 1       0.162070000000       1.805270000000      12.690400000000       0.175034794915      -0.079120271578       0.042302105388
103 1       6.505880000000       3.907950000000      16.455380000000       0.088522021230      -0.111329372841       0.012821366794
104 1       2.016050000000       4.296370000000       8.355130000000      -0.027511609779      -0.006725637371      -0.074895592166
105 1       0.119980000000       4.310890000000      10.204540000000       0.202554846585       0.058542504096       0.014213290356
106 1       8.338410000000       4.002310000000      14.613870000000      -0.092884001779      -0.261616537838      -0.130375570203
107 1       4.137060000000       2.088710000000       8.202470000000      -0.060607395400      -0.040320646473       0.024212742393
108 1       4.127260000000       6.250220000000      16.565240000000      -0.048478269969      -0.105341502955      -0.043998710653
109 1       2.014430000000       8.296230000000      12.575560000000      -0.023957267472      -0.026149097454      -0.027283666188
110 1       6.303520000000       8.176940000000      12.469960000000       0.060525302656       0.154568285380      -0.116550748071
111 1       2.088170000000       6.218720000000      14.455160000000       0.041854504936      -0.048807109766       0.024812366461
112 1       6.116140000000       1.996150000000      10.363850000000       0.013166659594       0.089876989908       0.094104150083
113 1       4.085910000000       4.223420000000      10.432810000000      -0.056082755161       0.031875877277      -0.054645463025
114 1       4.258020000000       4.106950000000      14.662700000000      -0.073975243557      -0.046078064202      -0.004012247493
115 1       0.025010000000       2.025090000000      16.581750000000       0.003827269150       0.055727184072      -0.030127946860
116 1       8.293040000000       6.260860000000       8.369910000000       0.180836324822      -0.114599291082      -0.014603846928
117 1       0.032540000000       8.231330000000      14.597330000000       0.273399867468       0.021941952023       0.014866597006
118 1       8.156810000000       8.209600000000      10.520620000000      -0.005288348556       0.052638155116       0.043611620385
119 1       4.231690000000       6.311340000000      12.654140000000      -0.122588512237      -0.028816147673       0.067493150767
120 1       4.128380000000       1.937780000000      12.558830000000      -0.012636117741       0.003537082658       0.005737491258
121 1       6.344080000000       1.958760000000      14.628150000000       0.047758796997       0.042858363418       0.009458904166
122 1       1.977110000000       6.176150000000      10.355150000000       0.033119977541       0.004295354892       0.054316156039
123 1       2.054370000000       3.990080000000      12.384560000000      -0.035232889354      -0.018860224094       0.077666078701
124 1       6.204640000000       4.176410000000      12.625560000000       0.006267984939      -0.090765802189      -0.111018954370
125 1       6.077620000000       0.107700000000       8.476390000000      -0.063277476033      -0.036163181711       0.134563193298
126 1       2.215690000000       0.034590000000      16.601180000000      -0.107604329385       0.019029844730       0.041589138348
127 1       6.262340000000       6.297830000000      10.473670000000       0.095193702398      -0.073737433891       0.030016539693
128 1       2.077670000000       1.863640000000      14.515790000000      -0.045224978135       0.000430396170       0.029303049427
129 1       2.260820000000       2.007420000000      18.884730000000      -0.083506311422      -0.037589357360       0.054256976189
130 1       6.307310000000       6.279130000000      22.847100000000      -0.026984493230       0.077678641152      -0.000546086050
131 1       4.306760000000       0.030420000000      22.897790000000       0.004193098539      -0.011746772109       0.037190715144
132 1       4.354270000000       0.072950000000      18.712350000000      -0.009829214464      -0.107070364286      -0.187372537969
133 1       0.105120000000       6.311340000000      20.871700000000       0.093220016453       0.240858255574       0.007850524526
134 1       0.105030000000       2.065670000000      20.914940000000      -0.036013145190       0.040589196373      -0.016017274145
135 1       6.366160000000       4.142020000000      24.935020000000       0.030707069405      -0.015190281553       0.043171380174
136 1       2.093990000000       4.020070000000      16.660940000000      -0.038722532904      -0.034917121072       0.056781550406
137 1       0.078090000000       4.224290000000      18.639170000000      -0.040802870271       0.018400397173       0.031809701325
138 1       8.299600000000       4.131450000000      23.034560000000       0.024678666098       0.005590744738       0.071839114725
139 1       4.319470000000       1.926480000000      16.747030000000       0.028539058784       0.087755459873       0.145809138881
140 1       4.137080000000       6.279750000000      24.933490000000      -0.040367612723      -0.045383363058       0.020322850560
141 1       2.095740000000       0.145520000000      20.868400000000       0.038276077075       0.092802162432      -0.015528572783
142 1       6.457050000000       0.005520000000      20.782360000000       0.033854253841      -0.056733380143      -0.205913050893
143 1       2.236320000000       6.300390000000      23.049050000000      -0.076825588455      -0.005742090783      -0.130886606976
144 1       6.270720000000       1.986800000000      18.691330000000      -0.057982427471       0.033945270468      -0.004557561469
145 1       4.218120000000       4.105070000000      18.867190000000       0.010558985905       0.054080511298      -0.103200395408
146 1       4.419800000000       4.430550000000      22.693520000000       0.078335862486       0.126562097858       0.011947179723
147 1       8.272160000000       2.230890000000      24.983250000000       0.144956596854      -0.010240506533      -0.136543445400
148 1       0.046370000000       6.117000000000      16.764480000000      -0.002641792550       0.088318074823      -0.028278534806
149 1       8.277140000000       0.153450000000      22.853590000000      -0.018572605591      -0.079581178440       0.062978889316
150 1       0.059780000000       8.302860000000      18.856120000000      -0.069766511835      -0.049871592772      -0.077200211613
151 1       4.340490000000       6.322740000000      20.875780000000       0.009880679949       0.018804333135      -0.101742766918
152 1       4.232110000000       2.190520000000      20.756380000000       0.094432175884      -0.027119841689      -0.004642259787
153 1       6.388240000000       2.229610000000      22.985320000000      -0.094062135284       0.136731330874       0.092622401235
154 1       2.143880000000       6.290340000000      18.803350000000       0.010819937024       0.038847109632      -0.023177511820
155 1       2.207530000000       4.084120000000      20.909950000000       0.051613857662      -0.012588957075       0.013032934938
156 1       6.332780000000       4.269680000000      20.871440000000      -0.291707370281       0.258465670084       0.061291045059
157 1       6.220990000000       0.008570000000      16.753060000000      -0.016104230973      -0.045077872991       0.030450708848
158 1       2.059430000000       0.014330000000       0.019330000000      -0.033614484401      -0.071932388011       0.036498689391
159 1       6.568350000000       6.423290000000      18.949850000000       0.117848053416       0.061184572287       0.071545198761
160 1       2.054870000000       2.083640000000      22.850870000000       0.023262503213      -0.014655657879      -0.056251265069
