ITEM: TIMESTEP
0
ITEM: NUMBER OF ATOMS
30
ITEM: BOX BOUNDS xy xz yz pp pp pp
-2.5419852320000000e+00 5.0839704650000002e+00 -2.5419852320000000e+00
0.0000000000000000e+00 4.4028479940000000e+00 0.0000000000000000e+00
0.0000000000000000e+00 1.3686412447000000e+01 0.0000000000000000e+00
ITEM: ATOMS id type v_vir_xx v_vir_yy v_vir_zz v_vir_xy v_vir_xz v_vir_yz
1 2      -3.234384332558      -3.234457960098      -2.033404970361       0.000007715193       0.000000231683      -0.000005636938
2 2      -3.234545822014      -3.234492831013      -2.033620250133      -0.000040844640       0.000003497311       0.000006137714
3 2      -3.234429366520      -3.234418637938      -2.033495738493       0.000015238510      -0.000010933350      -0.000009965321
4 2      -3.234393623922      -3.234396620293      -2.033374661844      -0.000058174882      -0.000021968407      -0.000012567811
5 2      -3.234542066266      -3.234499145615      -2.033582289623      -0.000001440648       0.000035315986       0.000016102023
6 2      -3.234397390566      -3.234480542644      -2.033333644238       0.000004907472      -0.000028710366       0.000004805425
7 2      -3.234501104199      -3.234465940861      -2.033593509286      -0.000024845710       0.000040932385       0.000011367428
8 2      -3.234386521499      -3.234441383795      -2.033497483931       0.000037977199      -0.000018123113       0.000001418632
9 2      -3.234489992991      -3.234429060013      -2.033538481246      -0.000014746072      -0.000012071585      -0.000012209808
10 2      -3.234434289292      -3.234438018590      -2.033489367112       0.000025527108      -0.000016318343      -0.000007527124
11 2      -3.234417722403      -3.234484230317      -2.033514030167       0.000013466873      -0.000000425115      -0.000015403954
12 2      -3.234490764827      -3.234433509228      -2.033599106470      -0.000013794653       0.000011548154       0.000010235948
13 1       1.984381717527       2.828222571695       1.613639435221      -0.730740600557       0.639414886600       0.369167053457
14 1       3.250153298866       1.562542059115       1.613624459597       0.000008744426      -0.000006708508      -0.738357976735
15 1       1.984432585104       2.828226335394       1.613636683218       0.730774842370      -0.639429418098       0.369164521261
16 1       1.984395860595       2.828177544260       1.613606682336      -0.730771881845       0.639432919983       0.369150180910
17 1       1.984301232840       2.828221496358       1.613619403269       0.730734805136      -0.639414019989       0.369190214116
18 1       3.250103075063       1.562478246636       1.613602225884       0.000067320648      -0.000016507730      -0.738330651119
19 1       1.984373840431       2.828219288004       1.613638699462      -0.730772171099       0.639434137046       0.369179090998
20 1       3.250084908228       1.562461510531       1.613635410778      -0.000064274358       0.000018031658      -0.738330612830
21 1       1.984419630507       2.828167554798       1.613603237127       0.730758061774      -0.639437351900       0.369155579745
22 1       1.984351875972       2.828216098087       1.613612723885      -0.730727153248       0.639417671670       0.369166845960
23 1       1.984422300209       2.828211887813       1.613627544137       0.730814441502      -0.639437733888       0.369153373664
24 1       3.250083528353       1.562464684870       1.613589774865      -0.000059270339       0.000021577482      -0.738307891676
25 1       1.984406919872       2.828210853691       1.613616136346      -0.730751678054       0.639437595508       0.369179378056
26 1       3.250127217449       1.562486703323       1.613630614941       0.000022317114      -0.000010916097      -0.738345572536
27 1       1.984360453182       2.828192182814       1.613621133268       0.730747610640      -0.639409749848       0.369172039008
28 1       1.984370315606       2.828198560717       1.613609764853      -0.730762235528       0.639417130988       0.369168384877
29 1       1.984426280730       2.828200441119       1.613613095591       0.730778529787      -0.639435968374       0.369164943345
30 1       3.250090911496       1.562508760294       1.613617680560      -0.000007125506      -0.000005491834      -0.738345539494
