30
Config_type=bulk_alpha_phase Weight=1.0 Lattice="5.083970465 0.000000000 0.000000000 -2.541985232 4.402847994 0.000000000 0.000000000 0.000000000 13.686412447" Energy=-255.13181660 Virial="-4.57140 -0.00002 0.00000 -0.00002 -4.57148 -0.00001 0.00000 -0.00001 -4.04670" pbc="T T T" Properties=species:S:1:pos:R:3:forces:R:3
Ga	      0.00000      0.00000      1.97213         0.000031     -0.000000     -0.015488
Ga	      0.00000      2.93523      0.30894         0.000038      0.000032      0.015387
Ga	      2.54199      1.46762      2.59000        -0.000101     -0.000085      0.015471
Ga	      0.00000      2.93523      4.25320        -0.000007      0.000040     -0.015452
Ga	      2.54199      1.46762      6.53426        -0.000090     -0.000092     -0.015252
Ga	      0.00000      0.00000      4.87108        -0.000018     -0.000008      0.015427
Ga	      0.00000      2.93523      7.15215         0.000030      0.000043      0.015447
Ga	      0.00000      0.00000      8.81534         0.000036     -0.000000     -0.015493
Ga	      0.00000      2.93523     11.09641         0.000005      0.000036     -0.015484
Ga	      2.54199      1.46762      9.43321        -0.000068     -0.000075      0.015424
Ga	      0.00000      0.00000     11.71428        -0.000008     -0.000013      0.015462
Ga	      2.54199      1.46762     13.37747        -0.000106     -0.000099     -0.015418
O	      4.31363      1.33427      3.42160        -0.002392      0.004222      0.000085
O	      1.54068      0.00000      3.42160         0.004927      0.000023      0.000041
O	      1.77165      3.06858      3.42160        -0.002464     -0.004237      0.000058
O	      3.31232      0.13334      1.14053         0.002480     -0.004158      0.000073
O	      3.31233      2.80188      1.14053         0.002330      0.004291      0.000083
O	      1.00130      1.46762      1.14053        -0.004845     -0.000073      0.000079
O	      1.77165      2.80188      7.98374        -0.002422      0.004291      0.000031
O	      4.08267      1.46762      7.98374         0.004874     -0.000106      0.000044
O	      1.77165      0.13334      7.98374        -0.002468     -0.004137      0.000050
O	      0.77034      1.60096      5.70268         0.002334     -0.004222     -0.000144
O	      0.77033      4.26950      5.70268         0.002574      0.004203     -0.000153
O	     -1.54069      2.93523      5.70268        -0.004799      0.000070     -0.000157
O	     -0.77034      4.26950     12.54588        -0.002451      0.004211     -0.000035
O	      1.54068      2.93523     12.54588         0.004912      0.000092     -0.000059
O	     -0.77034      1.60096     12.54588        -0.002331     -0.004243     -0.000079
O	      3.31233      3.06858     10.26481         0.002475     -0.004229      0.000037
O	      0.77034      1.33427     10.26481         0.002419      0.004213      0.000011
O	      3.54329      0.00000     10.26481        -0.004894      0.000012      0.000002
