ITEM: TIMESTEP
0
ITEM: NUMBER OF ATOMS
80
ITEM: BOX BOUNDS pp pp pp
0.0000000000000000e+00 9.3544788879999992e+00
0.0000000000000000e+00 9.3544788879999992e+00
0.0000000000000000e+00 9.3544788879999992e+00
ITEM: ATOMS id type x y z fx fy fz
1 2       7.015860000000       2.338620000000       2.338620000000      -0.000000603548       0.000004916258      -0.000003072579
2 2       7.015860000000       4.343890000000       4.677240000000      -0.000013603455      -0.027305504697      -0.000013518747
3 2       0.000000000000       7.015860000000       0.333350000000       0.000011732373      -0.000005101682       0.027314745680
4 2       0.000000000000       2.338620000000       4.343890000000       0.000014930178      -0.000017252162      -0.027310221596
5 2       0.333350000000       0.000000000000       7.015860000000       0.027314745680       0.000011732373      -0.000005101681
6 2       0.333350000000       4.677240000000       2.338620000000       0.027300649039      -0.000010320957      -0.000008750442
7 2       2.338620000000       4.343890000000       0.000000000000      -0.000017252162      -0.027310221596       0.000014930178
8 2       2.338620000000       7.015860000000       2.338620000000      -0.000003072579      -0.000000603548       0.000004916258
9 2       2.338620000000       2.338620000000       2.338620000000      -0.000010029188      -0.000010029188      -0.000010029188
10 2       2.338620000000       2.338620000000       7.015860000000       0.000004916258      -0.000003072579      -0.000000603548
11 2       2.338620000000       0.333350000000       4.677240000000      -0.000008750442       0.027300649039      -0.000010320957
12 2       4.343890000000       0.000000000000       2.338620000000      -0.027310221596       0.000014930178      -0.000017252162
13 2       4.343890000000       4.677240000000       7.015860000000      -0.027305504697      -0.000013518747      -0.000013603455
14 2       4.677240000000       2.338620000000       0.333350000000      -0.000010320957      -0.000008750442       0.027300649039
15 2       4.677240000000       7.015860000000       4.343890000000      -0.000013518747      -0.000013603455      -0.027305504697
16 2       7.015860000000       0.333350000000       0.000000000000      -0.000005101682       0.027314745680       0.000011732373
17 2       2.338620000000       7.015860000000       7.015860000000      -0.000019102848      -0.000029021901      -0.000038095530
18 2       2.338620000000       9.021120000000       0.000000000000      -0.000000225454      -0.027163339835       0.000038960151
19 2       4.677240000000       2.338620000000       5.010590000000       0.000013708278      -0.000008727751       0.027286250673
20 2       4.677240000000       7.015860000000       9.021120000000       0.000016905885      -0.000013627414      -0.027158623249
21 2       5.010590000000       4.677240000000       2.338620000000       0.027286250673       0.000013708278      -0.000008727751
22 2       5.010590000000       0.000000000000       7.015860000000       0.027300347391       0.000042157168      -0.000022127926
23 2       7.015860000000       9.021120000000       4.677240000000      -0.000013627414      -0.027158623249       0.000016905885
24 2       7.015860000000       2.338620000000       7.015860000000      -0.000038095530      -0.000019102848      -0.000029021901
25 2       7.015860000000       7.015860000000       7.015860000000       0.000007385723       0.000007385723       0.000007385723
26 2       7.015860000000       7.015860000000       2.338620000000      -0.000029021901      -0.000038095530      -0.000019102848
27 2       7.015860000000       5.010590000000       0.000000000000      -0.000022127926       0.027300347391       0.000042157168
28 2       9.021120000000       4.677240000000       7.015860000000      -0.027158623249       0.000016905885      -0.000013627414
29 2       9.021120000000       0.000000000000       2.338620000000      -0.027163339835       0.000038960151      -0.000000225454
30 2       0.000000000000       7.015860000000       5.010590000000       0.000042157168      -0.000022127926       0.027300347391
31 2       0.000000000000       2.338620000000       9.021120000000       0.000038960151      -0.000000225454      -0.027163339835
32 2       2.338620000000       5.010590000000       4.677240000000      -0.000008727751       0.027286250673       0.000013708278
33 1       8.274410000000       5.709670000000       1.476160000000      -0.006257281289      -0.003943265579      -0.024658681861
34 1       8.274410000000       3.644810000000       3.201080000000      -0.006261639943       0.003954584659       0.024666339622
35 1       8.322050000000       1.476160000000       1.080070000000       0.003946113091      -0.024646972853       0.006218083846
36 1       8.322050000000       3.201080000000       5.757310000000       0.003936218209       0.024663473947       0.006252699806
37 1       1.032430000000       3.201080000000       1.080070000000      -0.003962777698       0.024661498569       0.006219474716
38 1       1.032430000000       1.476160000000       5.757310000000      -0.003943410062      -0.024662920879       0.006245667789
39 1       1.080070000000       8.322050000000       1.476160000000       0.006218083846       0.003946113091      -0.024646972853
40 1       1.080070000000       1.032430000000       3.201080000000       0.006219474716      -0.003962777698       0.024661498569
41 1       1.476160000000       5.757310000000       1.032430000000      -0.024662920879       0.006245667789      -0.003943410062
42 1       1.476160000000       3.597170000000       3.644810000000      -0.024657366468      -0.006244174809       0.003949310007
43 1       1.476160000000       1.080070000000       8.322050000000      -0.024646972853       0.006218083846       0.003946113091
44 1       1.476160000000       8.274410000000       5.709670000000      -0.024658681861      -0.006257281289      -0.003943265579
45 1       3.201080000000       3.597170000000       5.709670000000       0.024664786947      -0.006248239186      -0.003947463165
46 1       3.201080000000       1.080070000000       1.032430000000       0.024661498569       0.006219474716      -0.003962777698
47 1       3.201080000000       8.274410000000       3.644810000000       0.024666339622      -0.006261639943       0.003954584659
48 1       3.201080000000       5.757310000000       8.322050000000       0.024663473947       0.006252699806       0.003936218209
49 1       3.597170000000       3.644810000000       1.476160000000      -0.006244174809       0.003949310007      -0.024657366468
50 1       3.597170000000       5.709670000000       3.201080000000      -0.006248239186      -0.003947463165       0.024664786947
51 1       3.644810000000       1.476160000000       3.597170000000       0.003949310007      -0.024657366468      -0.006244174809
52 1       3.644810000000       3.201080000000       8.274410000000       0.003954584659       0.024666339622      -0.006261639943
53 1       5.709670000000       1.476160000000       8.274410000000      -0.003943265579      -0.024658681861      -0.006257281289
54 1       5.709670000000       3.201080000000       3.597170000000      -0.003947463165       0.024664786947      -0.006248239186
55 1       5.757310000000       8.322050000000       3.201080000000       0.006252699806       0.003936218209       0.024663473947
56 1       5.757310000000       1.032430000000       1.476160000000       0.006245667789      -0.003943410062      -0.024662920879
57 1       3.597170000000       1.032430000000       6.153400000000      -0.006247454513      -0.003946010537      -0.024669779387
58 1       3.597170000000       8.322050000000       7.878320000000      -0.006247066596       0.003936041645       0.024648725546
59 1       3.644810000000       6.153400000000       5.757310000000       0.003954345906      -0.024658142603       0.006251038267
60 1       3.644810000000       7.878320000000       1.080070000000       0.003970935900       0.024635114042       0.006217425693
61 1       5.709670000000       7.878320000000       5.757310000000      -0.003949722054       0.024643957171       0.006247683109
62 1       5.709670000000       6.153400000000       1.080070000000      -0.003962394303      -0.024649062349       0.006220486648
63 1       5.757310000000       3.644810000000       6.153400000000       0.006251038267       0.003954345906      -0.024658142603
64 1       5.757310000000       5.709670000000       7.878320000000       0.006247683109      -0.003949722054       0.024643957171
65 1       6.153400000000       1.080070000000       5.709670000000      -0.024649062349       0.006220486648      -0.003962394303
66 1       6.153400000000       8.274410000000       8.322050000000      -0.024664227386      -0.006263528774       0.003934620758
67 1       6.153400000000       5.757310000000       3.644810000000      -0.024658142603       0.006251038267       0.003954345906
68 1       6.153400000000       3.597170000000       1.032430000000      -0.024669779387      -0.006247454513      -0.003946010537
69 1       7.878320000000       8.274410000000       1.032430000000       0.024657146538      -0.006257499551      -0.003948508421
70 1       7.878320000000       5.757310000000       5.709670000000       0.024643957171       0.006247683109      -0.003949722054
71 1       7.878320000000       3.597170000000       8.322050000000       0.024648725546      -0.006247066596       0.003936041645
72 1       7.878320000000       1.080070000000       3.644810000000       0.024635114042       0.006217425693       0.003970935900
73 1       8.274410000000       8.322050000000       6.153400000000      -0.006263528774       0.003934620758      -0.024664227386
74 1       8.274410000000       1.032430000000       7.878320000000      -0.006257499551      -0.003948508421       0.024657146538
75 1       8.322050000000       6.153400000000       8.274410000000       0.003934620758      -0.024664227386      -0.006263528774
76 1       8.322050000000       7.878320000000       3.597170000000       0.003936041645       0.024648725546      -0.006247066596
77 1       1.032430000000       6.153400000000       3.597170000000      -0.003946010537      -0.024669779387      -0.006247454513
78 1       1.032430000000       7.878320000000       8.274410000000      -0.003948508421       0.024657146538      -0.006257499551
79 1       1.080070000000       3.644810000000       7.878320000000       0.006217425693       0.003970935900       0.024635114042
80 1       1.080070000000       5.709670000000       6.153400000000       0.006220486648      -0.003962394303      -0.024649062349
