ITEM: TIMESTEP
0
ITEM: NUMBER OF ATOMS
20
ITEM: BOX BOUNDS xy xz yz pp pp pp
-1.3930429887389999e+00 1.2485368007372999e+01 0.0000000000000000e+00
0.0000000000000000e+00 3.0918923750000000e+00 -1.3930429887389999e+00
0.0000000000000000e+00 5.7240721521460003e+00 0.0000000000000000e+00
ITEM: ATOMS id type x y z fx fy fz
1 2       1.540698391800       1.545950000000       1.797125619623      -0.007364489165      -0.000034548614       0.067463742211
2 2       3.308938095952       0.000000000000       3.926951855976       0.007474041335       0.000034550321      -0.067525667376
3 2       0.015625432918       0.000000000000       4.549013673484      -0.015440872315       0.000056771129      -0.025177759279
4 2       4.834013419474       1.545950000000       1.175054085712       0.015578438124      -0.000056765755       0.025360562231
5 2       7.783379424698       0.000000000000       1.797124547740      -0.007336278434       0.000034548054       0.067498831356
6 2       9.551628845252       1.545950000000       3.926953148733       0.007372100943      -0.000034549497      -0.067567701221
7 2       6.258316182218       1.545950000000       4.549014966241      -0.015600785264      -0.000056768691      -0.025240240502
8 2      11.076694452371       0.000000000000       1.175053013829       0.015584964209       0.000056766130       0.025367124005
9 1       5.834145565291       0.000000000000       1.468635155611       0.002371797824       0.000069447238      -0.010936135347
10 1      -0.984496996496       1.545950000000       4.255434968225      -0.002487501035      -0.000069453535       0.010917113981
11 1       1.381743564840       0.000000000000       3.229973727374      -0.027100196353       0.000019533407       0.009124542472
12 1       3.467905003955       1.545950000000       2.494096396462       0.027013746509      -0.000019535954      -0.009023892745
13 1       2.959622156192       1.545950000000       5.099813271119       0.015310725427      -0.000034878219       0.025000009346
14 1       1.890024047963       0.000000000000       0.624266569120      -0.015377885636       0.000034881215      -0.025211782446
15 1      12.076826598188       1.545950000000       1.468634083728       0.002408407361      -0.000069448172      -0.010924956846
16 1       5.258184036401       0.000000000000       4.255433896342      -0.002409515225       0.000069448719       0.010946323343
17 1       7.624424597737       1.545950000000       3.229972655491      -0.027024879134      -0.000019532538       0.009107761703
18 1       9.710586036852       0.000000000000       2.494095324579       0.027043239926       0.000019538418      -0.009007635157
19 1       9.202303189089       0.000000000000       5.099812199236       0.015330305462       0.000034877902       0.024996490770
20 1       8.132705080861       1.545950000000       0.624265497237      -0.015345364558      -0.000034881557      -0.025166730498
