ITEM: TIMESTEP
0
ITEM: NUMBER OF ATOMS
160
ITEM: BOX BOUNDS pp pp pp
0.0000000000000000e+00 8.2767117240000001e+00
0.0000000000000000e+00 8.2767117240000001e+00
0.0000000000000000e+00 2.4830135170999998e+01
ITEM: ATOMS id type x y z fx fy fz
1 2       1.202830000000       5.141680000000      21.825450000000       0.004775823502       0.031858567914      -0.020478968892
2 2       5.138050000000       0.835200000000      13.518960000000      -0.225632938999      -0.030744320586      -0.033402591121
3 2       7.067340000000       7.316760000000       7.305170000000      -0.107063825181       0.166735356419      -0.056246937091
4 2       7.204000000000       7.046440000000      15.593990000000      -0.014743345953      -0.127785431652       0.100138299673
5 2       5.160290000000       5.192890000000       0.970070000000       0.028750017309       0.240084394060      -0.108679469133
6 2       2.994470000000       3.168440000000       7.132750000000      -0.052141552211      -0.195945775660      -0.001572577206
7 2       0.934280000000       1.037580000000       1.091940000000      -0.094690665819      -0.042634903191      -0.007568497311
8 2       5.107150000000       1.025320000000       5.182260000000       0.017554160927       0.066765157213       0.011615576350
9 2       3.143540000000       2.922870000000      15.461720000000      -0.090593981071       0.103844536535      -0.051851292994
10 2       5.324610000000       1.100840000000      21.660550000000      -0.125601363563       0.021580222570       0.044756279953
11 2       3.094850000000       7.163960000000      11.382850000000       0.003100501066       0.006259692824      -0.020943961143
12 2       7.332450000000       3.157060000000      19.583050000000       0.153577597517      -0.083802353905      -0.102318639116
13 2       1.007650000000       5.035220000000      13.335410000000       0.071755254003       0.052700735984      -0.038553616456
14 2       7.245670000000       3.177520000000       3.166500000000      -0.036851572431      -0.246934682091       0.124715459616
15 2       5.040350000000       5.279890000000       9.257740000000      -0.159064013857       0.091437353834       0.036127069758
16 2       7.269930000000       7.347700000000      23.825360000000      -0.010913984194      -0.084536141261       0.031341487842
17 2       3.158580000000       7.368550000000      19.714240000000      -0.183409015223      -0.053321712757       0.036721072401
18 2       0.898990000000       1.067720000000       9.405950000000       0.171943917768       0.067661745950       0.013237317816
19 2       3.192750000000       7.337600000000       3.044560000000       0.069585424168       0.061072320182      -0.020885568944
20 2       1.160130000000       1.027360000000      17.615970000000      -0.047930225450       0.022326457800       0.047886015957
21 2       3.874130000000       0.195640000000       8.290100000000       0.142485476165      -0.120897881706       0.038233881602
22 2       6.069930000000       6.037810000000      12.391070000000       0.033485214469      -0.092520045512      -0.052407322953
23 2       2.138190000000       2.123350000000      20.708730000000       0.009664358978      -0.101414126653       0.024202307559
24 2       6.328770000000       6.215650000000      20.648280000000      -0.085844435941      -0.253853696557       0.093749698289
25 2       1.933960000000       6.319330000000       8.184140000000      -0.101460331053       0.041846529799      -0.060467838767
26 2       8.236400000000       2.035740000000       6.169300000000       0.197806934933       0.054847142145      -0.205418296254
27 2       1.972460000000       2.067420000000       4.178220000000      -0.171403763723       0.005035064804       0.165251481884
28 2       0.039410000000       1.989310000000      14.435220000000       0.082404474253       0.353011585636       0.108660672180
29 2       0.170680000000       6.130470000000      18.581530000000      -0.039841090719      -0.125638019906      -0.195015292759
30 2       6.197410000000       0.056160000000       2.078680000000       0.008054036333      -0.013046583025      -0.027622139222
31 2       6.027070000000       0.076710000000      10.408530000000      -0.035371500753       0.068328509762       0.050545497564
32 2       4.131110000000       2.172510000000      18.575070000000       0.025307637966       0.041244543532      -0.087652976618
33 2       6.337330000000       8.228340000000      18.621120000000       0.149757982787       0.122766038629      -0.147590159449
34 2       6.278640000000       2.043130000000      16.543170000000      -0.082228333604      -0.052411285724       0.337445964264
35 2       0.159300000000       2.049170000000      22.814680000000       0.042916390233       0.090056237647       0.334474467830
36 2       2.004420000000       8.060810000000      14.582740000000      -0.071941320108      -0.036796912790      -0.018261219262
37 2       3.968920000000       5.950430000000      14.493270000000       0.159709267352       0.088225588972       0.050993588054
38 2       6.191400000000       4.159170000000       6.220640000000      -0.105904569730      -0.017401577989      -0.310056714192
39 2       4.156150000000       6.314270000000      22.802070000000      -0.089925856040       0.116012748699       0.201796522491
40 2       0.099950000000       4.140990000000      16.556000000000       0.071891231694       0.067815662335       0.192594196611
41 2       2.062570000000       4.191720000000       2.067850000000      -0.005992632200      -0.018197381846       0.012655667475
42 2       4.099800000000       4.251570000000      20.641260000000      -0.003807448855       0.029138359329       0.057647950476
43 2       4.101910000000       8.078510000000      16.618310000000       0.008543083968      -0.090726534647       0.017473435981
44 2       6.215700000000       4.194050000000      22.727990000000       0.112489742747      -0.122162865544       0.120063796536
45 2       8.212800000000       6.125220000000      10.333560000000      -0.046701517857       0.113849747734       0.373299986341
46 2       8.257480000000       8.218300000000      12.432210000000      -0.007779934695      -0.192900088086      -0.442803736625
47 2       0.047010000000       4.221700000000       0.027700000000      -0.162876664232       0.038819505331      -0.202680198858
48 2       6.152790000000       4.020440000000      14.460290000000       0.048349809094       0.241015082930      -0.031608821534
49 2       4.076530000000       4.149600000000       4.112400000000       0.154253278581      -0.064023616491       0.261871922315
50 2       2.106940000000       2.012350000000      12.337840000000       0.055473840263       0.155815629167      -0.124113976007
51 2       2.071990000000       4.058200000000      10.359130000000      -0.044948879928      -0.156451570564       0.136040931716
52 2       0.037420000000       6.346170000000       2.172700000000       0.264798992580       0.053047618325      -0.041711556272
53 2       0.201350000000       8.238920000000      20.794210000000       0.067495060237      -0.202238936177      -0.095043619080
54 2       4.072850000000       2.027210000000       1.957400000000      -0.201045375784      -0.052260941193      -0.029432233155
55 2       6.129150000000       2.037150000000      24.785660000000       0.000476864556      -0.010021631411      -0.326633868477
56 2       8.244750000000       4.099860000000       8.274440000000       0.167998324099      -0.211098298293      -0.031291367894
57 2       6.019990000000       2.144280000000       8.379750000000      -0.048291181905       0.084284984641      -0.002141512580
58 2       3.968520000000       6.348820000000       6.147140000000      -0.028529067594       0.008877802800      -0.052779675677
59 2       6.263760000000       6.340490000000       4.188610000000       0.005160284047       0.005994908298       0.305789550476
60 2       2.154020000000       6.312980000000      24.793560000000       0.148864998035      -0.038024019787      -0.164264625382
61 2       5.115480000000       3.087920000000      11.423270000000      -0.076400328997      -0.072044582078       0.023991964422
62 2       3.134630000000       1.073450000000      23.774990000000       0.059151456559      -0.007253763646      -0.054320895376
63 2       3.144970000000       5.104940000000      17.585110000000      -0.057332459327       0.076143296190       0.016836563120
64 2       0.975590000000       7.298620000000       5.162860000000      -0.000340046943       0.029341631282       0.019138740525
65 1       2.091960000000       2.127680000000       2.101200000000       0.175043367958      -0.058068495878      -0.144409533750
66 1       6.065680000000       6.163710000000       6.173430000000       0.123367199726      -0.135501039551      -0.171990497294
67 1       4.168610000000       8.228550000000       6.343140000000      -0.020672203567       0.140353960146       0.046343587886
68 1       4.252020000000       0.127020000000       2.028360000000      -0.036999561082      -0.046530111615       0.067258105831
69 1       8.166110000000       6.240510000000       4.082640000000       0.056488209057      -0.004970671116       0.102070055332
70 1       0.022530000000       2.117430000000       4.213290000000      -0.021983943234       0.041590180681      -0.015275372958
71 1       6.138560000000       4.129740000000       8.244550000000       0.025244824969      -0.190067012183      -0.012829331301
72 1       1.922790000000       4.365670000000       0.195730000000      -0.082170721964       0.168435403629       0.025246031918
73 1       8.273270000000       4.292210000000       2.043020000000       0.050280405385       0.037027125451      -0.127134595148
74 1       8.060950000000       3.988770000000       6.404780000000      -0.134439995688      -0.120317393389       0.041941353328
75 1       4.224440000000       2.127060000000       0.041760000000      -0.058288543049       0.007325342082      -0.039844408610
76 1       3.966540000000       6.320580000000       8.149970000000      -0.014333698961       0.043782961773      -0.195920350058
77 1       2.090140000000       0.080540000000       4.117180000000       0.017099032830       0.034968658974      -0.061598198173
78 1       6.089420000000       8.231480000000       4.044200000000      -0.031753578026       0.087622690704      -0.004559036899
79 1       2.063490000000       6.271060000000       6.265110000000      -0.094382693160       0.008006971552      -0.082819411872
80 1       6.146270000000       2.104850000000       2.005940000000       0.070855966436       0.041156932103       0.028496854305
81 1       4.127360000000       4.081020000000       2.090770000000      -0.059603595206      -0.037748686557       0.111192793267
82 1       4.174230000000       4.277950000000       6.108710000000       0.003209561263       0.014348342874      -0.153743565551
83 1       8.075610000000       2.078570000000       8.249480000000       0.022725267976       0.061444857602       0.088924267471
84 1       0.047390000000       6.226990000000       0.093420000000       0.019334626270      -0.126474456822      -0.099789640851
85 1       8.134050000000       0.065360000000       6.222560000000      -0.014951279908      -0.094405235818       0.021137054205
86 1       8.144920000000       8.250850000000       2.108410000000       0.026338959354       0.048088316786      -0.053755853965
87 1       4.191920000000       6.163700000000       4.173250000000      -0.144416944814      -0.055966234044       0.218523467071
88 1       4.070560000000       2.145250000000       4.051920000000      -0.000347202249       0.141406253429       0.086972832786
89 1       6.176810000000       2.143950000000       6.281100000000      -0.027033196098       0.062047571310      -0.070901811745
90 1       2.028970000000       6.252100000000       2.034090000000      -0.208423089542       0.051814371926       0.155254053900
91 1       2.201570000000       4.015630000000       3.937870000000       0.090991091311      -0.169951086951      -0.015216979366
92 1       6.084090000000       4.265130000000       4.213940000000      -0.056596717558       0.004884523633       0.075712710479
93 1       6.289060000000       0.144710000000       0.109860000000       0.050757290802      -0.073595712616       0.016727894445
94 1       1.989380000000       8.233110000000       8.388780000000       0.019563068213       0.078562119236      -0.015610606231
95 1       6.247690000000       6.274110000000       2.131200000000      -0.072449381920      -0.042408764291      -0.008353725483
96 1       1.908870000000       2.103780000000       6.109140000000       0.076391159368       0.024021015670       0.068889904272
97 1       2.026250000000       2.114090000000      10.403000000000      -0.039405019446      -0.082008067630      -0.034995592504
98 1       6.125280000000       6.052750000000      14.412890000000      -0.078778142815      -0.000505833010      -0.080521935888
99 1       4.056460000000       8.081360000000      14.619910000000       0.025157827177       0.002958211883       0.234128449207
100 1       4.145490000000       8.140750000000      10.226670000000      -0.144739209444       0.014809292351      -0.054523669862
101 1       8.138260000000       6.213830000000      12.332310000000       0.031454199532       0.097605159010      -0.197585096671
102 1       0.148690000000       1.810920000000      12.569650000000       0.162623761810      -0.120142423434       0.077897589701
103 1       6.442280000000       3.901350000000      16.348940000000       0.077634306029      -0.144361787647      -0.024224985510
104 1       1.997730000000       4.264810000000       8.297170000000      -0.033005590412      -0.005558170850      -0.083253013962
105 1       0.107170000000       4.257960000000      10.144070000000       0.182382445439       0.108586189675      -0.009932596606
106 1       8.268850000000       3.972830000000      14.506590000000      -0.021891727422      -0.176183100182      -0.117822403436
107 1       4.104140000000       2.084600000000       8.161530000000      -0.083192583831      -0.024186899879       0.003942545792
108 1       4.124040000000       6.190490000000      16.441540000000      -0.058876298187      -0.090176478293      -0.006778446914
109 1       1.995020000000       8.230370000000      12.483050000000      -0.097184619613      -0.034898519726      -0.040413477547
110 1       6.251760000000       8.109970000000      12.376550000000       0.128017445333       0.169741697933      -0.159232721582
111 1       2.066610000000       6.162900000000      14.366800000000       0.013838554198      -0.059271877678      -0.000734848358
112 1       6.098880000000       1.986780000000      10.291270000000      -0.004340549493       0.090445555149       0.088218835854
113 1       4.054230000000       4.191290000000      10.352070000000       0.009398764500       0.039019431376      -0.051859460792
114 1       4.222980000000       4.062110000000      14.525500000000      -0.097697043566      -0.046857999471      -0.000652951403
115 1       0.021810000000       2.015070000000      16.455210000000      -0.055133522619       0.014959386602      -0.068080892583
116 1       8.220710000000       6.205370000000       8.307640000000       0.236282083486      -0.050547345629       0.023324949456
117 1       0.023940000000       8.175900000000      14.483740000000       0.218038377409      -0.019263005649      -0.007293032673
118 1       8.093420000000       8.144070000000      10.433060000000      -0.006555457775      -0.008783216839       0.124008025358
119 1       4.191430000000       6.244350000000      12.552240000000      -0.114093677762      -0.014510292290      -0.002424570476
120 1       4.093960000000       1.920010000000      12.458980000000      -0.050115316933      -0.009485343235       0.008467706452
121 1       6.292510000000       1.949570000000      14.517500000000       0.104675867886       0.019683176765       0.056418013267
122 1       1.959160000000       6.129700000000      10.271140000000      -0.029960198325       0.002554032222       0.075549879792
123 1       2.058500000000       3.963700000000      12.296800000000      -0.032368885225       0.031767853684       0.116622802214
124 1       6.185080000000       4.137230000000      12.522800000000      -0.022722518668      -0.079646937714      -0.126308226485
125 1       6.022260000000       0.107120000000       8.407860000000      -0.024734715985      -0.021705497948       0.201159999882
126 1       2.195150000000       0.018210000000      16.482280000000      -0.118263575547       0.040421315388       0.057345809689
127 1       6.210600000000       6.254810000000      10.391400000000       0.157207128217      -0.109336146022       0.098938056779
128 1       2.054540000000       1.842520000000      14.402120000000      -0.088972259309       0.005855797202       0.053916950140
129 1       2.237510000000       2.003700000000      18.737930000000      -0.078288671036      -0.033321309218      -0.013399566542
130 1       6.256170000000       6.226680000000      22.670740000000      -0.007797016681       0.032858863357      -0.043075115196
131 1       4.275330000000       0.028210000000      22.725210000000       0.012793354877      -0.065693893610       0.029211639670
132 1       4.319850000000       0.076100000000      18.574620000000       0.065243046176      -0.126983485327      -0.146083562326
133 1       0.099390000000       6.259650000000      20.703520000000       0.073280896950       0.195260742951       0.056293972922
134 1       0.100230000000       2.049220000000      20.754550000000      -0.023536202077       0.048741420538       0.000712532509
135 1       6.318750000000       4.111270000000      24.744720000000       0.071258504400       0.008437519118      -0.028882966903
136 1       2.078860000000       3.986880000000      16.532270000000       0.033231284382      -0.054730501675       0.050886166312
137 1       0.098070000000       4.185020000000      18.503970000000      -0.056315810942      -0.028966074701       0.072619609914
138 1       8.234010000000       4.103230000000      22.849210000000      -0.017949860680      -0.003362847429       0.159842083018
139 1       4.282650000000       1.906160000000      16.613020000000       0.132007370781       0.093764610216       0.103674283502
140 1       4.109450000000       6.253470000000      24.747000000000       0.006826397634      -0.054195283122       0.068057750526
141 1       2.085810000000       0.150380000000      20.729560000000       0.031542147153       0.045138046966      -0.041430156498
142 1       6.410290000000       8.274560000000      20.621650000000       0.020662498803      -0.039213074535      -0.237437148822
143 1       2.208870000000       6.275930000000      22.860020000000      -0.106116273123      -0.009170476968      -0.150153179375
144 1       6.223560000000       1.968700000000      18.550980000000      -0.040959289331      -0.037673677465      -0.083061250557
145 1       4.213080000000       4.077060000000      18.715290000000      -0.003742083060       0.048575410123      -0.111036538233
146 1       4.362410000000       4.382440000000      22.536540000000       0.123822012931       0.120050843140      -0.002123736581
147 1       8.206520000000       2.211800000000      24.794650000000       0.158916671398       0.065816428790      -0.228637193345
148 1       0.072210000000       6.078360000000      16.630590000000      -0.016909361936       0.125768823843      -0.075189082298
149 1       8.230640000000       0.147690000000      22.685810000000      -0.040073860929      -0.093081746695       0.079682680383
150 1       0.061230000000       8.236410000000      18.714830000000      -0.158547267638      -0.014827992484      -0.083396820462
151 1       4.309470000000       6.273130000000      20.720580000000       0.074000158437      -0.002831009623      -0.135116419512
152 1       4.200990000000       2.173840000000      20.598200000000       0.095630309142      -0.054513173459      -0.053903375352
153 1       6.344590000000       2.208690000000      22.806410000000      -0.123227895588       0.104479971269       0.169462737871
154 1       2.131120000000       6.245860000000      18.660410000000       0.092007892107       0.049594134233      -0.017339865292
155 1       2.188000000000       4.065740000000      20.718220000000       0.019518316410       0.030378557719       0.041724393173
156 1       6.272290000000       4.229810000000      20.713970000000      -0.219139595885       0.191620204439       0.112346281678
157 1       6.174550000000       0.011340000000      16.620470000000      -0.004857244455      -0.003710306797       0.118295565267
158 1       2.041460000000       0.016400000000       0.022160000000      -0.041725168731       0.017740272219       0.040534719475
159 1       6.505340000000       6.355300000000      18.782380000000       0.108066128682       0.091962149447       0.094648993033
160 1       2.046300000000       2.100610000000      22.679260000000       0.005876866048      -0.030529078652      -0.005444370806
