40
Config_type=bulk_kappa_phase Weight=1.0 Lattice="8.942965294 0.000000000 0.000000000 0.000000000 5.207769426 0.000000000 0.000000000 0.000000000 9.569235641" Energy=-340.08866980 Virial="-20.12839 0.00176 -0.00137 0.00176 -21.78020 0.01430 -0.00137 0.01430 -19.23271" pbc="T T T" Properties=species:S:1:pos:R:3:forces:R:3
Ga	      1.39662      1.61702      8.50662         0.000781      0.004229     -0.003527
Ga	      3.18567      4.22090      8.50663         0.000490      0.004179     -0.003076
Ga	      5.89833      0.90864      7.64590        -0.000853     -0.016768     -0.013196
Ga	      7.62692      3.51252      7.64590        -0.000503     -0.017649     -0.010412
Ga	      4.82269      3.52975      5.70612         0.006253     -0.008308      0.004693
Ga	      1.50241      3.57859      5.83082         0.000999      0.005504      0.003121
Ga	      3.07987      0.97471      5.83082        -0.001280      0.004522      0.004404
Ga	      8.70257      0.92586      5.70612        -0.005631     -0.008959      0.004490
Ga	      1.42674      1.69508      2.86138         0.001078      0.016874     -0.012032
Ga	      3.15556      4.29896      2.86139        -0.001775      0.017260     -0.010130
Ga	      5.86745      0.98743      3.72190        -0.000855     -0.003365     -0.003299
Ga	      7.65781      3.59132      3.72190         0.001383     -0.002101     -0.003184
Ga	      4.23186      1.67853      0.92191        -0.006963      0.007799      0.002913
Ga	      5.97379      4.23313      1.04577         0.001189     -0.004401      0.000741
Ga	      7.55147      1.62924      1.04577        -0.001934     -0.004264      0.001749
Ga	      0.35043      4.28241      0.92191         0.008530      0.007098      0.002709
O	      7.46654      1.80364      4.49665         0.014438     -0.001801      0.000207
O	      0.05188      0.79375      0.07145         0.002874     -0.004223      0.003539
O	      7.48985      0.07596      7.07076         0.002016     -0.009371      0.009666
O	      7.40913      5.03704      2.14994         0.009545     -0.008566     -0.001482
O	      6.05871      4.40753      4.49665        -0.014505     -0.002025     -0.000347
O	      7.58806      3.39824      9.54696        -0.009911     -0.014398     -0.001597
O	      6.03540      2.67985      7.07076        -0.002710     -0.009377      0.009476
O	      6.11614      2.43315      2.14995        -0.009201     -0.008686     -0.001865
O	      1.46531      1.80937      4.76271         0.009155      0.013746     -0.004510
O	      2.99563      0.80077      9.28175         0.013955      0.001885     -0.000065
O	      1.64612      0.16948      6.93571        -0.010527      0.009730     -0.003527
O	      1.56397      5.13169      2.28640        -0.001810      0.008716      0.010203
O	      0.05921      4.41451      4.85622        -0.002317      0.002795      0.003768
O	      1.58666      3.40465      9.28175        -0.014499      0.001658     -0.000537
O	      0.14410      2.47279      7.02222         0.002772      0.000190      0.000227
O	      8.90930      2.73453      2.23779        -0.003631      0.000237      0.000802
O	      4.52308      1.81062      4.85623         0.002831      0.003270      0.003511
O	      5.93719      0.79436      9.54696         0.009514     -0.014674     -0.002104
O	      4.43818      5.07667      7.02222        -0.002731      0.000203      0.000579
O	      4.61596      0.13065      2.23780         0.003493      0.000697      0.000695
O	      3.11698      4.41325      4.76271        -0.009820      0.013999     -0.003350
O	      4.53041      3.39764      0.07146        -0.002176     -0.003992      0.003595
O	      2.93616      2.77336      6.93572         0.010783      0.009785     -0.003660
O	      3.01833      2.52781      2.28640         0.001553      0.008549      0.010814
