80
Config_type=bulk_delta_phase Weight=1.0 Lattice="9.373300777 0.000000000 0.000000000 0.000000000 9.373300777 0.000000000 0.000000000 0.000000000 9.373300777" Energy=-475.170450 Virial="11.37821 -0.00007 0.00001 -0.00007 11.37823 0.00007 0.00001 0.00007 11.37833" pbc="T T T" Properties=species:S:1:pos:R:3:forces:R:3
Ga	      7.02998      2.34333      2.34333        -0.000061     -0.000131     -0.000129
Ga	      7.02998      4.35228      4.68665        -0.000034      0.008119      0.000058
Ga	      0.00000      7.02998      0.33437         0.000042     -0.000042     -0.008043
Ga	      0.00000      2.34333      4.35228         0.000068     -0.000116      0.008123
Ga	      0.33437      0.00000      7.02998        -0.008055      0.000049     -0.000043
Ga	      0.33437      4.68665      2.34333        -0.008024      0.000075     -0.000119
Ga	      2.34333      4.35228      0.00000        -0.000117      0.008122      0.000064
Ga	      2.34333      7.02998      2.34333        -0.000133     -0.000065     -0.000128
Ga	      2.34333      2.34333      2.34333        -0.000082     -0.000076     -0.000076
Ga	      2.34333      2.34333      7.02998        -0.000129     -0.000132     -0.000070
Ga	      2.34333      0.33437      4.68665        -0.000123     -0.008015      0.000086
Ga	      4.35228      0.00000      2.34333         0.008114      0.000063     -0.000109
Ga	      4.35228      4.68665      7.02998         0.008134      0.000069     -0.000034
Ga	      4.68665      2.34333      0.33437         0.000087     -0.000120     -0.008019
Ga	      4.68665      7.02998      4.35228         0.000060     -0.000044      0.008128
Ga	      7.02998      0.33437      0.00000        -0.000046     -0.008051      0.000044
Ga	      2.34333      7.02998      7.02998        -0.000090     -0.000054     -0.000068
Ga	      2.34333      9.03894      0.00000        -0.000093      0.007970      0.000011
Ga	      4.68665      2.34333      5.02102         0.000037     -0.000087     -0.008002
Ga	      4.68665      7.02998      9.03894         0.000054     -0.000076      0.007987
Ga	      5.02102      4.68665      2.34333        -0.007998      0.000032     -0.000088
Ga	      5.02102      0.00000      7.02998        -0.008036      0.000035     -0.000066
Ga	      7.02998      9.03894      4.68665        -0.000076      0.007985      0.000051
Ga	      7.02998      2.34333      7.02998        -0.000066     -0.000094     -0.000048
Ga	      7.02998      7.02998      7.02998        -0.000073     -0.000065     -0.000066
Ga	      7.02998      7.02998      2.34333        -0.000055     -0.000073     -0.000095
Ga	      7.02998      5.02102      0.00000        -0.000066     -0.008025      0.000037
Ga	      9.03894      4.68665      7.02998         0.007983      0.000049     -0.000066
Ga	      9.03894      0.00000      2.34333         0.007973      0.000016     -0.000091
Ga	      0.00000      7.02998      5.02102         0.000038     -0.000067     -0.008035
Ga	      0.00000      2.34333      9.03894         0.000014     -0.000090      0.007974
Ga	      2.34333      5.02102      4.68665        -0.000085     -0.008000      0.000029
O	      8.29272      5.72331      1.47957         0.003594     -0.002003      0.003256
O	      8.29272      3.64999      3.20708         0.003584      0.002063     -0.003217
O	      8.33664      1.47957      1.08058         0.002007      0.003238     -0.003525
O	      8.33664      3.20708      5.76723         0.002021     -0.003202     -0.003565
O	      1.03666      3.20708      1.08058        -0.001930     -0.003214     -0.003504
O	      1.03666      1.47957      5.76723        -0.001984      0.003238     -0.003544
O	      1.08058      8.33664      1.47957        -0.003498      0.002015      0.003248
O	      1.08058      1.03666      3.20708        -0.003468     -0.001971     -0.003237
O	      1.47957      5.76723      1.03666         0.003283     -0.003564     -0.002003
O	      1.47957      3.60607      3.64999         0.003298      0.003620      0.002035
O	      1.47957      1.08058      8.33664         0.003248     -0.003532      0.002023
O	      1.47957      8.29272      5.72331         0.003254      0.003608     -0.002007
O	      3.20708      3.60607      5.72331        -0.003215      0.003619     -0.002013
O	      3.20708      1.08058      1.03666        -0.003221     -0.003488     -0.001955
O	      3.20708      8.29272      3.64999        -0.003218      0.003607      0.002037
O	      3.20708      5.76723      8.33664        -0.003243     -0.003604      0.002041
O	      3.60607      3.64999      1.47957         0.003587      0.002029      0.003245
O	      3.60607      5.72331      3.20708         0.003582     -0.002002     -0.003211
O	      3.64999      1.47957      3.60607         0.002036      0.003256      0.003595
O	      3.64999      3.20708      8.29272         0.002036     -0.003196      0.003624
O	      5.72331      1.47957      8.29272        -0.002011      0.003245      0.003621
O	      5.72331      3.20708      3.60607        -0.002004     -0.003213      0.003607
O	      5.76723      8.33664      3.20708        -0.003560      0.002038     -0.003220
O	      5.76723      1.03666      1.47957        -0.003564     -0.001995      0.003257
O	      3.60607      1.03666      6.16622         0.003619     -0.002023      0.003265
O	      3.60607      8.33664      7.89374         0.003609      0.002084     -0.003324
O	      3.64999      6.16622      5.76723         0.002042      0.003247     -0.003592
O	      3.64999      7.89374      1.08058         0.002006     -0.003300     -0.003504
O	      5.72331      7.89374      5.76723        -0.002013     -0.003319     -0.003589
O	      5.72331      6.16622      1.08058        -0.001971      0.003256     -0.003493
O	      5.76723      3.64999      6.16622        -0.003587      0.002065      0.003255
O	      5.76723      5.72331      7.89374        -0.003574     -0.002034     -0.003344
O	      6.16622      1.08058      5.72331         0.003258     -0.003522     -0.001999
O	      6.16622      8.29272      8.33664         0.003280      0.003654      0.002082
O	      6.16622      5.76723      3.64999         0.003277     -0.003579      0.002051
O	      6.16622      3.60607      1.03666         0.003263      0.003608     -0.002021
O	      7.89374      8.29272      1.03666        -0.003339      0.003617     -0.002028
O	      7.89374      5.76723      5.72331        -0.003335     -0.003586     -0.002027
O	      7.89374      3.60607      8.33664        -0.003321      0.003635      0.002069
O	      7.89374      1.08058      3.64999        -0.003343     -0.003544      0.002024
O	      8.29272      8.33664      6.16622         0.003632      0.002086      0.003261
O	      8.29272      1.03666      7.89374         0.003622     -0.002041     -0.003316
O	      8.33664      6.16622      8.29272         0.002078      0.003254      0.003633
O	      8.33664      7.89374      3.60607         0.002045     -0.003318      0.003622
O	      1.03666      6.16622      3.60607        -0.001992      0.003266      0.003620
O	      1.03666      7.89374      8.29272        -0.002021     -0.003306      0.003614
O	      1.08058      3.64999      7.89374        -0.003511      0.002039     -0.003301
O	      1.08058      5.72331      6.16622        -0.003502     -0.001990      0.003255
80
Config_type=bulk_delta_phase Weight=1.0 Lattice="9.298013220 0.000000000 0.000000000 0.000000000 9.298013220 0.000000000 0.000000000 0.000000000 9.298013220" Energy=-474.559065 Virial="35.40166 0.00008 -0.00003 0.00008 35.40171 0.00001 -0.00003 0.00001 35.40176" pbc="T T T" Properties=species:S:1:pos:R:3:forces:R:3
Ga	      6.97351      2.32450      2.32450        -0.000002      0.000126      0.000129
Ga	      6.97351      4.31943      4.64901        -0.000003      0.011596     -0.000075
Ga	      0.00000      6.97351      0.32958        -0.000050     -0.000011     -0.011729
Ga	      0.00000      2.32450      4.31943        -0.000045      0.000109      0.011582
Ga	      0.32958      0.00000      6.97351        -0.011737     -0.000042     -0.000011
Ga	      0.32958      4.64901      2.32450        -0.011704     -0.000085      0.000110
Ga	      2.32450      4.31943      0.00000         0.000110      0.011587     -0.000056
Ga	      2.32450      6.97351      2.32450         0.000131      0.000002      0.000133
Ga	      2.32450      2.32450      2.32450         0.000081      0.000081      0.000084
Ga	      2.32450      2.32450      6.97351         0.000128      0.000130      0.000001
Ga	      2.32450      0.32958      4.64901         0.000104     -0.011714     -0.000090
Ga	      4.31943      0.00000      2.32450         0.011589     -0.000055      0.000109
Ga	      4.31943      4.64901      6.97351         0.011592     -0.000074     -0.000011
Ga	      4.64901      2.32450      0.32958        -0.000086      0.000104     -0.011709
Ga	      4.64901      6.97351      4.31943        -0.000083     -0.000007      0.011594
Ga	      6.97351      0.32958      0.00000        -0.000011     -0.011731     -0.000041
Ga	      2.32450      6.97351      6.97351         0.000095     -0.000018     -0.000009
Ga	      2.32450      8.96843      0.00000         0.000089      0.011694     -0.000016
Ga	      4.64901      2.32450      4.97859        -0.000054      0.000089     -0.011715
Ga	      4.64901      6.97351      8.96843        -0.000055      0.000002      0.011709
Ga	      4.97859      4.64901      2.32450        -0.011706     -0.000049      0.000087
Ga	      4.97859      0.00000      6.97351        -0.011730     -0.000025      0.000013
Ga	      6.97351      8.96843      4.64901         0.000007      0.011699     -0.000064
Ga	      6.97351      2.32450      6.97351         0.000002      0.000099     -0.000010
Ga	      6.97351      6.97351      6.97351         0.000003     -0.000001      0.000007
Ga	      6.97351      6.97351      2.32450        -0.000014     -0.000001      0.000091
Ga	      6.97351      4.97859      0.00000         0.000010     -0.011727     -0.000028
Ga	      8.96843      4.64901      6.97351         0.011709     -0.000057      0.000006
Ga	      8.96843      0.00000      2.32450         0.011694     -0.000019      0.000086
Ga	      0.00000      6.97351      4.97859        -0.000023      0.000006     -0.011724
Ga	      0.00000      2.32450      8.96843        -0.000023      0.000093      0.011700
Ga	      2.32450      4.97859      4.64901         0.000085     -0.011705     -0.000045
O	      8.21852      5.66897      1.46567         0.004770     -0.003451      0.003971
O	      8.21852      3.62905      3.18333         0.004706      0.003379     -0.003897
O	      8.27805      1.46567      1.07949         0.003460      0.003968     -0.004692
O	      8.27805      3.18333      5.72850         0.003476     -0.003905     -0.004735
O	      1.01996      3.18333      1.07949        -0.003437     -0.003885     -0.004647
O	      1.01996      1.46567      5.72850        -0.003423      0.003946     -0.004725
O	      1.07949      8.27805      1.46567        -0.004694      0.003470      0.003920
O	      1.07949      1.01996      3.18333        -0.004650     -0.003409     -0.003862
O	      1.46567      5.72850      1.01996         0.003903     -0.004705     -0.003439
O	      1.46567      3.56952      3.62905         0.003925      0.004573      0.003342
O	      1.46567      1.07949      8.27805         0.003962     -0.004672      0.003467
O	      1.46567      8.21852      5.66897         0.003967      0.004724     -0.003462
O	      3.18333      3.56952      5.66897        -0.003891      0.004593     -0.003407
O	      3.18333      1.07949      1.01996        -0.003884     -0.004641     -0.003445
O	      3.18333      8.21852      3.62905        -0.003905      0.004715      0.003421
O	      3.18333      5.72850      8.27805        -0.003888     -0.004699      0.003456
O	      3.56952      3.62905      1.46567         0.004604      0.003340      0.003949
O	      3.56952      5.66897      3.18333         0.004627     -0.003454     -0.003891
O	      3.62905      1.46567      3.56952         0.003325      0.003943      0.004585
O	      3.62905      3.18333      8.21852         0.003399     -0.003914      0.004695
O	      5.66897      1.46567      8.21852        -0.003463      0.003962      0.004736
O	      5.66897      3.18333      3.56952        -0.003411     -0.003874      0.004579
O	      5.72850      8.27805      3.18333        -0.004691      0.003480     -0.003863
O	      5.72850      1.01996      1.46567        -0.004698     -0.003399      0.003917
O	      3.56952      1.01996      6.11468         0.004578     -0.003422      0.003952
O	      3.56952      8.27805      7.83234         0.004597      0.003457     -0.003939
O	      3.62905      6.11468      5.72850         0.003387      0.003944     -0.004683
O	      3.62905      7.83234      1.07949         0.003388     -0.003923     -0.004690
O	      5.66897      7.83234      5.72850        -0.003439     -0.003909     -0.004720
O	      5.66897      6.11468      1.07949        -0.003488      0.003958     -0.004663
O	      5.72850      3.62905      6.11468        -0.004695      0.003397      0.003951
O	      5.72850      5.66897      7.83234        -0.004745     -0.003452     -0.003954
O	      6.11468      1.07949      5.66897         0.003972     -0.004706     -0.003462
O	      6.11468      8.21852      8.27805         0.003972      0.004724      0.003479
O	      6.11468      5.72850      3.62905         0.003943     -0.004718      0.003394
O	      6.11468      3.56952      1.01996         0.003914      0.004548     -0.003390
O	      7.83234      8.21852      1.01996        -0.003923      0.004704     -0.003472
O	      7.83234      5.72850      5.66897        -0.003931     -0.004718     -0.003466
O	      7.83234      3.56952      8.27805        -0.003920      0.004565      0.003439
O	      7.83234      1.07949      3.62905        -0.003941     -0.004661      0.003412
O	      8.21852      8.27805      6.11468         0.004703      0.003483      0.003950
O	      8.21852      1.01996      7.83234         0.004706     -0.003438     -0.003923
O	      8.27805      6.11468      8.21852         0.003517      0.004004      0.004717
O	      8.27805      7.83234      3.56952         0.003456     -0.003937      0.004637
O	      1.01996      6.11468      3.56952        -0.003451      0.003937      0.004597
O	      1.01996      7.83234      8.21852        -0.003444     -0.003943      0.004725
O	      1.07949      3.62905      7.83234        -0.004665      0.003365     -0.003929
O	      1.07949      5.66897      6.11468        -0.004686     -0.003440      0.003957
80
Config_type=bulk_delta_phase Weight=1.0 Lattice="9.392122666 0.000000000 0.000000000 0.000000000 9.392122666 0.000000000 0.000000000 0.000000000 9.392122666" Energy=-475.233691 Virial="5.27856 0.00000 -0.00000 0.00000 5.27862 0.00001 -0.00000 0.00001 5.27865" pbc="T T T" Properties=species:S:1:pos:R:3:forces:R:3
Ga	      7.04409      2.34803      2.34803         0.000019      0.000004      0.000012
Ga	      7.04409      4.36006      4.69606         0.000012      0.011715      0.000002
Ga	      0.00000      7.04409      0.33600        -0.000028      0.000011     -0.011737
Ga	      0.00000      2.34803      4.36006        -0.000034      0.000003      0.011719
Ga	      0.33600      0.00000      7.04409        -0.011742     -0.000023      0.000008
Ga	      0.33600      4.69606      2.34803        -0.011741     -0.000004     -0.000007
Ga	      2.34803      4.36006      0.00000         0.000006      0.011723     -0.000030
Ga	      2.34803      7.04409      2.34803         0.000005      0.000018      0.000003
Ga	      2.34803      2.34803      2.34803        -0.000002     -0.000008     -0.000002
Ga	      2.34803      2.34803      7.04409         0.000003      0.000006      0.000012
Ga	      2.34803      0.33600      4.69606        -0.000003     -0.011743     -0.000004
Ga	      4.36006      0.00000      2.34803         0.011716     -0.000025      0.000001
Ga	      4.36006      4.69606      7.04409         0.011714     -0.000003      0.000014
Ga	      4.69606      2.34803      0.33600        -0.000002     -0.000002     -0.011739
Ga	      4.69606      7.04409      4.36006         0.000006      0.000006      0.011712
Ga	      7.04409      0.33600      0.00000         0.000006     -0.011747     -0.000022
Ga	      2.34803      7.04409      7.04409        -0.000001      0.000011      0.000007
Ga	      2.34803      9.05612      0.00000        -0.000003      0.011733     -0.000023
Ga	      4.69606      2.34803      5.03206         0.000005      0.000001     -0.011710
Ga	      4.69606      7.04409      9.05612        -0.000002      0.000010      0.011727
Ga	      5.03206      4.69606      2.34803        -0.011711      0.000008     -0.000004
Ga	      5.03206      0.00000      7.04409        -0.011708     -0.000019      0.000019
Ga	      7.04409      9.05612      4.69606         0.000014      0.011727      0.000003
Ga	      7.04409      2.34803      7.04409         0.000017     -0.000002      0.000005
Ga	      7.04409      7.04409      7.04409         0.000012      0.000017      0.000007
Ga	      7.04409      7.04409      2.34803         0.000009      0.000005     -0.000003
Ga	      7.04409      5.03206      0.00000         0.000016     -0.011713     -0.000021
Ga	      9.05612      4.69606      7.04409         0.011731      0.000003      0.000009
Ga	      9.05612      0.00000      2.34803         0.011735     -0.000022     -0.000008
Ga	      0.00000      7.04409      5.03206        -0.000022      0.000014     -0.011712
Ga	      0.00000      2.34803      9.05612        -0.000020     -0.000001      0.011728
Ga	      2.34803      5.03206      4.69606         0.000000     -0.011707      0.000013
O	      8.31161      5.73709      1.48327         0.003568     -0.001262      0.002699
O	      8.31161      3.65503      3.21279         0.003551      0.001280     -0.002698
O	      8.35109      1.48327      1.08051         0.001291      0.002694     -0.003566
O	      8.35109      3.21279      5.77657         0.001288     -0.002687     -0.003542
O	      1.04103      3.21279      1.08051        -0.001296     -0.002701     -0.003550
O	      1.04103      1.48327      5.77657        -0.001260      0.002673     -0.003528
O	      1.08051      8.35109      1.48327        -0.003575      0.001288      0.002688
O	      1.08051      1.04103      3.21279        -0.003540     -0.001292     -0.002694
O	      1.48327      5.77657      1.04103         0.002670     -0.003537     -0.001274
O	      1.48327      3.61555      3.65503         0.002698      0.003554      0.001276
O	      1.48327      1.08051      8.35109         0.002684     -0.003556      0.001281
O	      1.48327      8.31161      5.73709         0.002699      0.003580     -0.001273
O	      3.21279      3.61555      5.73709        -0.002710      0.003550     -0.001281
O	      3.21279      1.08051      1.04103        -0.002701     -0.003549     -0.001289
O	      3.21279      8.31161      3.65503        -0.002698      0.003561      0.001288
O	      3.21279      5.77657      8.35109        -0.002702     -0.003549      0.001278
O	      3.61555      3.65503      1.48327         0.003539      0.001265      0.002697
O	      3.61555      5.73709      3.21279         0.003520     -0.001287     -0.002672
O	      3.65503      1.48327      3.61555         0.001252      0.002678      0.003535
O	      3.65503      3.21279      8.31161         0.001278     -0.002701      0.003552
O	      5.73709      1.48327      8.31161        -0.001284      0.002673      0.003563
O	      5.73709      3.21279      3.61555        -0.001269     -0.002682      0.003521
O	      5.77657      8.35109      3.21279        -0.003534      0.001276     -0.002710
O	      5.77657      1.04103      1.48327        -0.003530     -0.001269      0.002682
O	      3.61555      1.04103      6.17933         0.003514     -0.001288      0.002694
O	      3.61555      8.35109      7.90885         0.003537      0.001292     -0.002694
O	      3.65503      6.17933      5.77657         0.001257      0.002673     -0.003550
O	      3.65503      7.90885      1.08051         0.001275     -0.002681     -0.003557
O	      5.73709      7.90885      5.77657        -0.001272     -0.002683     -0.003514
O	      5.73709      6.17933      1.08051        -0.001276      0.002699     -0.003528
O	      5.77657      3.65503      6.17933        -0.003532      0.001283      0.002688
O	      5.77657      5.73709      7.90885        -0.003531     -0.001262     -0.002707
O	      6.17933      1.08051      5.73709         0.002685     -0.003562     -0.001265
O	      6.17933      8.31161      8.35109         0.002709      0.003571      0.001274
O	      6.17933      5.77657      3.65503         0.002686     -0.003531      0.001259
O	      6.17933      3.61555      1.04103         0.002686      0.003524     -0.001262
O	      7.90885      8.31161      1.04103        -0.002680      0.003548     -0.001275
O	      7.90885      5.77657      5.73709        -0.002691     -0.003540     -0.001259
O	      7.90885      3.61555      8.35109        -0.002667      0.003531      0.001281
O	      7.90885      1.08051      3.65503        -0.002685     -0.003554      0.001264
O	      8.31161      8.35109      6.17933         0.003557      0.001285      0.002724
O	      8.31161      1.04103      7.90885         0.003569     -0.001283     -0.002677
O	      8.35109      6.17933      8.31161         0.001292      0.002713      0.003548
O	      8.35109      7.90885      3.61555         0.001271     -0.002689      0.003510
O	      1.04103      6.17933      3.61555        -0.001258      0.002664      0.003534
O	      1.04103      7.90885      8.31161        -0.001294     -0.002678      0.003559
O	      1.08051      3.65503      7.90885        -0.003563      0.001264     -0.002690
O	      1.08051      5.73709      6.17933        -0.003533     -0.001293      0.002682
80
Config_type=bulk_delta_phase Weight=1.0 Lattice="9.542697779 0.000000000 0.000000000 0.000000000 9.542697779 0.000000000 0.000000000 0.000000000 9.542697779" Energy=-474.577865 Virial="-36.86819 0.00003 -0.00000 0.00003 -36.86821 -0.00002 -0.00000 -0.00002 -36.86815" pbc="T T T" Properties=species:S:1:pos:R:3:forces:R:3
Ga	      7.15702      2.38567      2.38567         0.000061      0.000087      0.000093
Ga	      7.15702      4.42075      4.77135         0.000046     -0.002536     -0.000048
Ga	      0.00000      7.15702      0.35060        -0.000026      0.000049      0.002435
Ga	      0.00000      2.38567      4.42075        -0.000053      0.000093     -0.002538
Ga	      0.35060      0.00000      7.15702         0.002429     -0.000022      0.000053
Ga	      0.35060      4.77135      2.38567         0.002434     -0.000070      0.000098
Ga	      2.38567      4.42075      0.00000         0.000089     -0.002546     -0.000040
Ga	      2.38567      7.15702      2.38567         0.000095      0.000067      0.000089
Ga	      2.38567      2.38567      2.38567         0.000077      0.000071      0.000065
Ga	      2.38567      2.38567      7.15702         0.000087      0.000091      0.000071
Ga	      2.38567      0.35060      4.77135         0.000095      0.002429     -0.000067
Ga	      4.42075      0.00000      2.38567        -0.002531     -0.000046      0.000088
Ga	      4.42075      4.77135      7.15702        -0.002539     -0.000049      0.000043
Ga	      4.77135      2.38567      0.35060        -0.000069      0.000094      0.002445
Ga	      4.77135      7.15702      4.42075        -0.000043      0.000047     -0.002536
Ga	      7.15702      0.35060      0.00000         0.000046      0.002441     -0.000030
Ga	      2.38567      7.15702      7.15702         0.000075      0.000089      0.000084
Ga	      2.38567      9.19210      0.00000         0.000056     -0.002537     -0.000032
Ga	      4.77135      2.38567      5.12195        -0.000052      0.000052      0.002406
Ga	      4.77135      7.15702      9.19210        -0.000074      0.000089     -0.002540
Ga	      5.12195      4.77135      2.38567         0.002410     -0.000054      0.000049
Ga	      5.12195      0.00000      7.15702         0.002406     -0.000052      0.000085
Ga	      7.15702      9.19210      4.77135         0.000085     -0.002543     -0.000073
Ga	      7.15702      2.38567      7.15702         0.000096      0.000072      0.000087
Ga	      7.15702      7.15702      7.15702         0.000062      0.000063      0.000059
Ga	      7.15702      7.15702      2.38567         0.000077      0.000091      0.000082
Ga	      7.15702      5.12195      0.00000         0.000082      0.002409     -0.000052
Ga	      9.19210      4.77135      7.15702        -0.002546     -0.000072      0.000088
Ga	      9.19210      0.00000      2.38567        -0.002547     -0.000029      0.000058
Ga	      0.00000      7.15702      5.12195        -0.000045      0.000086      0.002411
Ga	      0.00000      2.38567      9.19210        -0.000028      0.000053     -0.002549
Ga	      2.38567      5.12195      4.77135         0.000051      0.002413     -0.000049
O	      8.46530      5.84999      1.51502         0.005879      0.001020      0.006764
O	      8.46530      3.69271      3.25632         0.005876     -0.001052     -0.006685
O	      8.46406      1.51502      1.07740        -0.001060      0.006728     -0.005951
O	      8.46406      3.25632      5.84875        -0.001063     -0.006677     -0.005973
O	      1.07864      3.25632      1.07740         0.001032     -0.006666     -0.005973
O	      1.07864      1.51502      5.84875         0.001008      0.006753     -0.005980
O	      1.07740      8.46406      1.51502        -0.005959     -0.001043      0.006752
O	      1.07740      1.07864      3.25632        -0.005978      0.001004     -0.006676
O	      1.51502      5.84875      1.07864         0.006753     -0.005982      0.000996
O	      1.51502      3.69395      3.69271         0.006778      0.005915     -0.001028
O	      1.51502      1.07740      8.46406         0.006758     -0.005945     -0.001053
O	      1.51502      8.46530      5.84999         0.006777      0.005880      0.001014
O	      3.25632      3.69395      5.84999        -0.006710      0.005933      0.001013
O	      3.25632      1.07740      1.07864        -0.006672     -0.005950      0.001004
O	      3.25632      8.46530      3.69271        -0.006719      0.005882     -0.001046
O	      3.25632      5.84875      8.46406        -0.006685     -0.005976     -0.001050
O	      3.69395      3.69271      1.51502         0.005910     -0.001050      0.006757
O	      3.69395      5.84999      3.25632         0.005905      0.001004     -0.006699
O	      3.69271      1.51502      3.69395        -0.001052      0.006775      0.005907
O	      3.69271      3.25632      8.46530        -0.001052     -0.006704      0.005902
O	      5.84999      1.51502      8.46530         0.001026      0.006779      0.005911
O	      5.84999      3.25632      3.69395         0.001025     -0.006683      0.005918
O	      5.84875      8.46406      3.25632        -0.005949     -0.001061     -0.006688
O	      5.84875      1.07864      1.51502        -0.005973      0.001020      0.006723
O	      3.69395      1.07864      6.28637         0.005900      0.001022      0.006759
O	      3.69395      8.46406      8.02767         0.005890     -0.001065     -0.006707
O	      3.69271      6.28637      5.84875        -0.001057      0.006729     -0.005966
O	      3.69271      8.02767      1.07740        -0.001051     -0.006696     -0.005958
O	      5.84999      8.02767      5.84875         0.001019     -0.006702     -0.005964
O	      5.84999      6.28637      1.07740         0.001020      0.006735     -0.005956
O	      5.84875      3.69271      6.28637        -0.005952     -0.001030      0.006746
O	      5.84875      5.84999      8.02767        -0.005964      0.001003     -0.006694
O	      6.28637      1.07740      5.84999         0.006754     -0.005946      0.001012
O	      6.28637      8.46530      8.46406         0.006781      0.005878     -0.001052
O	      6.28637      5.84875      3.69271         0.006760     -0.005978     -0.001040
O	      6.28637      3.69395      1.07864         0.006751      0.005918      0.001010
O	      8.02767      8.46530      1.07864        -0.006708      0.005902      0.001025
O	      8.02767      5.84875      5.84999        -0.006699     -0.005979      0.001004
O	      8.02767      3.69395      8.46406        -0.006723      0.005905     -0.001063
O	      8.02767      1.07740      3.69271        -0.006675     -0.005954     -0.001050
O	      8.46530      8.46406      6.28637         0.005877     -0.001074      0.006765
O	      8.46530      1.07864      8.02767         0.005875      0.001028     -0.006709
O	      8.46406      6.28637      8.46530        -0.001070      0.006763      0.005881
O	      8.46406      8.02767      3.69395        -0.001052     -0.006713      0.005895
O	      1.07864      6.28637      3.69395         0.001024      0.006757      0.005933
O	      1.07864      8.02767      8.46530         0.001026     -0.006713      0.005895
O	      1.07740      3.69271      8.02767        -0.005938     -0.001042     -0.006690
O	      1.07740      5.84999      6.28637        -0.005953      0.001017      0.006728
80
Config_type=bulk_delta_phase Weight=1.0 Lattice="9.429766444 0.000000000 0.000000000 0.000000000 9.429766444 0.000000000 0.000000000 0.000000000 9.429766444" Energy=-475.264302 Virial="-5.37765 0.00003 0.00006 0.00003 -5.37761 -0.00001 0.00006 -0.00001 -5.37771" pbc="T T T" Properties=species:S:1:pos:R:3:forces:R:3
Ga	      7.07232      2.35744      2.35744         0.000126      0.000035      0.000074
Ga	      7.07232      4.37613      4.71488         0.000098      0.013471      0.000020
Ga	      0.00000      7.07232      0.33876        -0.000003      0.000090     -0.013616
Ga	      0.00000      2.35744      4.37613        -0.000040      0.000065      0.013489