120
Config_type=bulk_alpha_phase Weight=2.236067977 Lattice="10.127431204 0.0 0.0 -5.063715602 8.770613534 0.0 0.0 0.0 13.631884907" Energy=-1020.49578827 Virial="-0.29947873634243344 -0.0005819229994288585 -0.00012847650636741033 -0.0005819229994288585 -0.30034028467925017 0.0001209190648163862 -0.00012847650636741033 0.0001209190648163862 -0.6860645440019711" pbc="T T T" Properties=species:S:1:pos:R:3:forces:R:3
Ga	  0.00000000	  0.00000000	  1.96489000	  0.00001300	 -0.00000400	0.01275200
Ga	  0.00000000	  2.92354000	  0.30710000	  0.00001800	  0.00000600	-0.01282100
Ga	  2.53186000	  1.46177000	  2.57907000	  0.00000500	 -0.00001700	-0.01275100
Ga	  0.00000000	  2.92354000	  4.23688000	 -0.00000900	 -0.00000800	0.01274900
Ga	  2.53186000	  1.46177000	  6.50885000	 -0.00000000	  0.00001500	0.01282400
Ga	  0.00000000	  0.00000000	  4.85105000	 -0.00001200	  0.00001100	-0.01274700
Ga	  0.00000000	  2.92354000	  7.12304000	  0.00001300	 -0.00001800	-0.01281600
Ga	  0.00000000	  0.00000000	  8.78083000	  0.00001400	 -0.00001800	0.01275000
Ga	  0.00000000	  2.92354000	 11.05282000	  0.00000000	  0.00000900	0.01274500
Ga	  2.53186000	  1.46177000	  9.39501000	  0.00000800	  0.00000900	-0.01274700
Ga	  0.00000000	  0.00000000	 11.66699000	 -0.00001600	 -0.00000200	-0.01275200
Ga	  2.53186000	  1.46177000	 13.32479000	 -0.00001700	 -0.00001000	0.01281700
Ga	 -2.53186000	  4.38531000	  1.96489000	  0.00001400	 -0.00000700	0.01274900
Ga	 -2.53186000	  7.30884000	  0.30710000	  0.00002200	  0.00000700	-0.01282500
Ga	 -0.00000000	  5.84708000	  2.57907000	 -0.00000600	 -0.00001400	-0.01275000
Ga	 -2.53186000	  7.30884000	  4.23688000	 -0.00001600	 -0.00000200	0.01274700
Ga	 -0.00000000	  5.84708000	  6.50885000	 -0.00000200	  0.00001300	0.01282100
Ga	 -2.53186000	  4.38531000	  4.85105000	 -0.00001200	  0.00001500	-0.01275100
Ga	 -2.53186000	  7.30884000	  7.12304000	  0.00000300	 -0.00000600	-0.01282000
Ga	 -2.53186000	  4.38531000	  8.78083000	  0.00000600	 -0.00001300	0.01274400
Ga	 -2.53186000	  7.30884000	 11.05282000	  0.00000400	  0.00001400	0.01274700
Ga	 -0.00000000	  5.84708000	  9.39501000	  0.00001100	  0.00000700	-0.01274500
Ga	 -2.53186000	  4.38531000	 11.66699000	 -0.00001100	  0.00000700	-0.01275500
Ga	 -0.00000000	  5.84708000	 13.32479000	 -0.00001200	 -0.00000800	0.01282200
Ga	  5.06372000	  0.00000000	  1.96489000	  0.00001000	 -0.00000700	0.01275300
Ga	  5.06372000	  2.92354000	  0.30710000	  0.00001100	  0.00000100	-0.01282200
Ga	  7.59557000	  1.46177000	  2.57907000	 -0.00000100	 -0.00001500	-0.01274500
Ga	  5.06372000	  2.92354000	  4.23688000	 -0.00001200	  0.00000000	0.01275000
Ga	  7.59557000	  1.46177000	  6.50885000	 -0.00000400	  0.00001300	0.01282100
Ga	  5.06372000	  0.00000000	  4.85105000	 -0.00000900	  0.00001800	-0.01275200
Ga	  5.06372000	  2.92354000	  7.12304000	  0.00000300	 -0.00001700	-0.01281900
Ga	  5.06372000	  0.00000000	  8.78083000	  0.00000200	 -0.00001500	0.01274600
Ga	  5.06372000	  2.92354000	 11.05282000	  0.00000200	  0.00000600	0.01274800
Ga	  7.59557000	  1.46177000	  9.39501000	  0.00001800	  0.00000600	-0.01274800
Ga	  5.06372000	  0.00000000	 11.66699000	 -0.00001900	  0.00000300	-0.01275100
Ga	  7.59557000	  1.46177000	 13.32479000	 -0.00001600	 -0.00000400	0.01282700
Ga	  2.53186000	  4.38531000	  1.96489000	  0.00001900	  0.00000600	0.01274800
Ga	  2.53186000	  7.30884000	  0.30710000	  0.00001800	  0.00001100	-0.01281900
Ga	  5.06372000	  5.84708000	  2.57907000	  0.00000200	 -0.00000700	-0.01274300
Ga	  2.53186000	  7.30884000	  4.23688000	 -0.00001200	 -0.00000600	0.01274600
Ga	  5.06372000	  5.84708000	  6.50885000	 -0.00000700	  0.00001800	0.01281700
Ga	  2.53186000	  4.38531000	  4.85105000	 -0.00001600	  0.00002100	-0.01275300
Ga	  2.53186000	  7.30884000	  7.12304000	  0.00000100	 -0.00001800	-0.01282300
Ga	  2.53186000	  4.38531000	  8.78083000	  0.00000400	 -0.00001900	0.01274900
Ga	  2.53186000	  7.30884000	 11.05282000	  0.00000400	  0.00001800	0.01275200
Ga	  5.06372000	  5.84708000	  9.39501000	  0.00000700	  0.00000800	-0.01274800
Ga	  2.53186000	  4.38531000	 11.66699000	 -0.00001800	  0.00000300	-0.01274700
Ga	  5.06372000	  5.84708000	 13.32479000	 -0.00001400	 -0.00001200	0.01282000
O	 -0.76717000	  1.32878000	  3.40797000	  0.00228200	 -0.00395600	-0.00000400
O	  1.53434000	  0.00000000	  3.40797000	 -0.00455900	  0.00000800	0.00000900
O	  1.76469000	  3.05653000	  3.40797000	  0.00228600	  0.00395900	0.00001100
O	  3.29903000	  0.13299000	  1.13599000	 -0.00227200	  0.00399200	0.00007300
O	  3.29903000	  2.79054000	  1.13599000	 -0.00235500	 -0.00394200	0.00009500
O	  0.99752000	  1.46177000	  1.13599000	  0.00456100	 -0.00004700	0.00007400
O	  1.76469000	  2.79054000	  7.95193000	  0.00232800	 -0.00393300	0.00008600
O	  4.06620000	  1.46177000	  7.95193000	 -0.00457700	 -0.00002800	0.00007600
O	  1.76469000	  0.13299000	  7.95193000	  0.00223200	  0.00401400	0.00007600
O	  0.76717000	  1.59476000	  5.67996000	 -0.00233100	  0.00394300	-0.00008800
O	  0.76717000	  4.25231000	  5.67996000	 -0.00223700	 -0.00401000	-0.00007900
O	 -1.53434000	  2.92354000	  5.67996000	  0.00458100	  0.00003600	-0.00008300
O	 -0.76717000	  4.25231000	 12.49590000	  0.00226600	 -0.00399200	-0.00008800
O	  1.53434000	  2.92354000	 12.49590000	 -0.00457000	  0.00003900	-0.00006800
O	 -0.76717000	  1.59476000	 12.49590000	  0.00235500	  0.00394000	-0.00009400
O	 -1.76469000	  3.05653000	 10.22391000	 -0.00228500	  0.00395900	-0.00000800
O	  0.76717000	  1.32878000	 10.22391000	 -0.00228600	 -0.00396000	-0.00001500
O	  3.52938000	  0.00000000	 10.22391000	  0.00456900	 -0.00000600	0.00000100
O	 -3.29903000	  5.71408000	  3.40797000	  0.00229400	 -0.00396100	-0.00000500
O	 -0.99752000	  4.38531000	  3.40797000	 -0.00456400	  0.00000400	-0.00000200
O	 -0.76717000	  7.44184000	  3.40797000	  0.00228300	  0.00396300	0.00000600
O	  0.76717000	  4.51830000	  1.13599000	 -0.00227300	  0.00399600	0.00008600
O	  0.76717000	  7.17585000	  1.13599000	 -0.00236800	 -0.00393900	0.00009100
O	 -1.53434000	  5.84708000	  1.13599000	  0.00457200	 -0.00004000	0.00008700
O	 -0.76717000	  7.17585000	  7.95193000	  0.00232500	 -0.00393900	0.00007800
O	  1.53434000	  5.84708000	  7.95193000	 -0.00459300	 -0.00004400	0.00007300
O	 -0.76717000	  4.51830000	  7.95193000	  0.00221500	  0.00401900	0.00008600
O	 -1.76469000	  5.98007000	  5.67996000	 -0.00233300	  0.00392700	-0.00008200
O	 -1.76469000	  8.63762000	  5.67996000	 -0.00222700	 -0.00400500	-0.00008400
O	 -4.06620000	  7.30884000	  5.67996000	  0.00458400	  0.00003700	-0.00008400
O	 -3.29903000	  8.63762000	 12.49590000	  0.00225700	 -0.00399800	-0.00008100
O	 -0.99752000	  7.30884000	 12.49590000	 -0.00456900	  0.00005300	-0.00007500
O	 -3.29903000	  5.98007000	 12.49590000	  0.00235600	  0.00393100	-0.00008500
O	 -4.29655000	  7.44184000	 10.22391000	 -0.00228100	  0.00396200	-0.00001300
O	 -1.76469000	  5.71408000	 10.22391000	 -0.00229700	 -0.00394400	0.00000500
O	  0.99752000	  4.38531000	 10.22391000	  0.00456400	 -0.00000900	0.00000400
O	  4.29655000	  1.32878000	  3.40797000	  0.00229800	 -0.00394600	0.00000700
O	  6.59805000	  0.00000000	  3.40797000	 -0.00457600	 -0.00000200	-0.00000200
O	  6.82840000	  3.05653000	  3.40797000	  0.00229300	  0.00397000	-0.00000900
O	  8.36274000	  0.13299000	  1.13599000	 -0.00227100	  0.00399900	0.00008200
O	  8.36274000	  2.79054000	  1.13599000	 -0.00236100	 -0.00393000	0.00007000
O	  6.06124000	  1.46177000	  1.13599000	  0.00457500	 -0.00004000	0.00008300
O	  6.82841000	  2.79054000	  7.95193000	  0.00232400	 -0.00393700	0.00008400
O	  9.12991000	  1.46177000	  7.95193000	 -0.00460000	 -0.00003000	0.00007900
O	  6.82841000	  0.13299000	  7.95193000	  0.00223200	  0.00399500	0.00007900
O	  5.83088000	  1.59476000	  5.67996000	 -0.00231700	  0.00393800	-0.00007800
O	  5.83088000	  4.25231000	  5.67996000	 -0.00222600	 -0.00402600	-0.00009300
O	  3.52938000	  2.92354000	  5.67996000	  0.00459100	  0.00003400	-0.00008200
O	  4.29655000	  4.25231000	 12.49590000	  0.00226900	 -0.00398800	-0.00007700
O	  6.59805000	  2.92354000	 12.49590000	 -0.00457900	  0.00004600	-0.00007600
O	  4.29654000	  1.59476000	 12.49590000	  0.00235500	  0.00392800	-0.00009300
O	  3.29903000	  3.05653000	 10.22391000	 -0.00228600	  0.00395100	0.00001000
O	  5.83088000	  1.32878000	 10.22391000	 -0.00229300	 -0.00395700	0.00000500
O	  8.59309000	  0.00000000	 10.22391000	  0.00456600	 -0.00000200	0.00000900
O	  1.76469000	  5.71408000	  3.40797000	  0.00228300	 -0.00394400	-0.00000800
O	  4.06620000	  4.38531000	  3.40797000	 -0.00458000	  0.00000100	0.00000200
O	  4.29655000	  7.44184000	  3.40797000	  0.00227600	  0.00396100	-0.00000900
O	  5.83089000	  4.51830000	  1.13599000	 -0.00227400	  0.00400500	0.00007100
O	  5.83089000	  7.17585000	  1.13599000	 -0.00235800	 -0.00392500	0.00010400
O	  3.52938000	  5.84708000	  1.13599000	  0.00456100	 -0.00004400	0.00007300
O	  4.29655000	  7.17585000	  7.95193000	  0.00232500	 -0.00392400	0.00007800
O	  6.59805000	  5.84708000	  7.95193000	 -0.00458600	 -0.00003600	0.00005400
O	  4.29655000	  4.51830000	  7.95193000	  0.00222900	  0.00401900	0.00008900
O	  3.29903000	  5.98007000	  5.67996000	 -0.00232000	  0.00392700	-0.00008400
O	  3.29902000	  8.63762000	  5.67996000	 -0.00222500	 -0.00400600	-0.00009100
O	  0.99752000	  7.30884000	  5.67996000	  0.00459500	  0.00003200	-0.00007300
O	  1.76469000	  8.63762000	 12.49590000	  0.00227400	 -0.00399000	-0.00008300
O	  4.06619000	  7.30884000	 12.49590000	 -0.00457100	  0.00004400	-0.00007600
O	  1.76469000	  5.98007000	 12.49590000	  0.00235400	  0.00392900	-0.00010100
O	  0.76717000	  7.44184000	 10.22391000	 -0.00228600	  0.00395000	0.00000200
O	  3.29903000	  5.71408000	 10.22391000	 -0.00228600	 -0.00395900	-0.00000200
O	  6.06124000	  4.38531000	 10.22391000	  0.00456400	 -0.00000200	-0.00001100
30
Config_type=bulk_alpha_phase Weight=2.236067977 Lattice="5.073843033 0.0 0.0 -2.536921517 4.394077381 0.0 0.0 0.0 13.659148677" Energy=-255.11558643 Virial="-2.3671196249326165 -0.0 0.0 -0.0 -2.3671196249326165 0.0 0.0 0.0 -2.073574446585614" pbc="T T T" Properties=species:S:1:pos:R:3:forces:R:3
Ga	  0.00000000	  0.00000000	  1.96882000	  0.00000000	 -0.00000000	0.00439000
Ga	  0.00000000	  2.92938000	  0.30771000	  0.00000000	 -0.00000000	-0.00439000
Ga	  2.53692000	  1.46469000	  2.58422000	  0.00000000	 -0.00000000	-0.00439000
Ga	  0.00000000	  2.92938000	  4.24535000	  0.00000000	 -0.00000000	0.00439000
Ga	  2.53692000	  1.46469000	  6.52187000	  0.00000000	 -0.00000000	0.00439000
Ga	  0.00000000	  0.00000000	  4.86075000	  0.00000000	 -0.00000000	-0.00439000
Ga	  0.00000000	  2.92938000	  7.13728000	  0.00000000	 -0.00000000	-0.00439000
Ga	  0.00000000	  0.00000000	  8.79839000	  0.00000000	 -0.00000000	0.00439000
Ga	  0.00000000	  2.92938000	 11.07492000	  0.00000000	 -0.00000000	0.00439000
Ga	  2.53692000	  1.46469000	  9.41380000	  0.00000000	 -0.00000000	-0.00439000
Ga	  0.00000000	  0.00000000	 11.69033000	  0.00000000	 -0.00000000	-0.00439000
Ga	  2.53692000	  1.46469000	 13.35144000	  0.00000000	 -0.00000000	0.00439000
O	 -0.76870000	  1.33143000	  3.41479000	  0.00148700	 -0.00257500	-0.00000000
O	  1.53741000	  0.00000000	  3.41479000	 -0.00297400	 -0.00000000	-0.00000000
O	  1.76822000	  3.06264000	  3.41479000	  0.00148700	  0.00257500	-0.00000000
O	  3.30563000	  0.13326000	  1.13826000	 -0.00148700	  0.00257500	-0.00000000
O	  3.30563000	  2.79612000	  1.13826000	 -0.00148700	 -0.00257500	-0.00000000
O	  0.99952000	  1.46469000	  1.13826000	  0.00297400	 -0.00000000	-0.00000000
O	  1.76822000	  2.79612000	  7.96783000	  0.00148700	 -0.00257500	-0.00000000
O	  4.07433000	  1.46469000	  7.96783000	 -0.00297400	 -0.00000000	-0.00000000
O	  1.76822000	  0.13326000	  7.96783000	  0.00148700	  0.00257500	0.00000000
O	  0.76870000	  1.59795000	  5.69132000	 -0.00148700	  0.00257500	0.00000000
O	  0.76870000	  4.26082000	  5.69132000	 -0.00148700	 -0.00257500	0.00000000
O	 -1.53741000	  2.92938000	  5.69132000	  0.00297400	 -0.00000000	0.00000000
O	 -0.76870000	  4.26082000	 12.52089000	  0.00148700	 -0.00257500	0.00000000
O	  1.53740000	  2.92938000	 12.52089000	 -0.00297400	 -0.00000000	-0.00000000
O	 -0.76871000	  1.59795000	 12.52089000	  0.00148700	  0.00257500	0.00000000
O	 -1.76822000	  3.06264000	 10.24436000	 -0.00148700	  0.00257500	0.00000000
O	  0.76870000	  1.33143000	 10.24436000	 -0.00148700	 -0.00257500	0.00000000
O	  3.53644000	  0.00000000	 10.24436000	  0.00297400	 -0.00000000	-0.00000000
30
Config_type=bulk_alpha_phase Weight=2.236067977 Lattice="5.083970465 0.0 0.0 -2.541985232 4.402847994 0.0 0.0 0.0 13.686412447" Energy=-255.10042822 Virial="-4.6209925873775415 0.0 0.0 0.0 -4.6209925873775415 -0.0 0.0 -0.0 -4.056189541191645" pbc="T T T" Properties=species:S:1:pos:R:3:forces:R:3
Ga	  0.00000000	  0.00000000	  1.97275000	  0.00000000	 -0.00000000	0.00545600
Ga	  0.00000000	  2.93523000	  0.30832000	  0.00000000	 -0.00000000	-0.00545600
Ga	  2.54199000	  1.46762000	  2.58938000	  0.00000000	 -0.00000000	-0.00545600
Ga	  0.00000000	  2.93523000	  4.25382000	  0.00000000	 -0.00000000	0.00545600
Ga	  2.54199000	  1.46762000	  6.53488000	  0.00000000	 -0.00000000	0.00545600
Ga	  0.00000000	  0.00000000	  4.87046000	  0.00000000	 -0.00000000	-0.00545600
Ga	  0.00000000	  2.93523000	  7.15153000	  0.00000000	 -0.00000000	-0.00545600
Ga	  0.00000000	  0.00000000	  8.81596000	  0.00000000	 -0.00000000	0.00545600
Ga	  0.00000000	  2.93523000	 11.09703000	  0.00000000	 -0.00000000	0.00545600
Ga	  2.54199000	  1.46762000	  9.43259000	  0.00000000	 -0.00000000	-0.00545600
Ga	  0.00000000	  0.00000000	 11.71366000	  0.00000000	 -0.00000000	-0.00545600
Ga	  2.54199000	  1.46762000	 13.37809000	  0.00000000	 -0.00000000	0.00545600
O	 -0.77024000	  1.33409000	  3.42160000	  0.00200700	 -0.00347600	-0.00000000
O	  1.54047000	  0.00000000	  3.42160000	 -0.00401400	 -0.00000000	-0.00000000
O	  1.77175000	  3.06876000	  3.42160000	  0.00200700	  0.00347600	-0.00000000
O	  3.31222000	  0.13352000	  1.14053000	 -0.00200700	  0.00347600	-0.00000000
O	  3.31223000	  2.80170000	  1.14053000	 -0.00200700	 -0.00347600	-0.00000000
O	  1.00151000	  1.46762000	  1.14053000	  0.00401400	 -0.00000000	-0.00000000
O	  1.77175000	  2.80170000	  7.98374000	  0.00200700	 -0.00347600	0.00000000
O	  4.08246000	  1.46762000	  7.98374000	 -0.00401400	 -0.00000000	0.00000000
O	  1.77175000	  0.13352000	  7.98374000	  0.00200700	  0.00347600	-0.00000000
O	  0.77024000	  1.60114000	  5.70268000	 -0.00200700	  0.00347600	0.00000000
O	  0.77023000	  4.26932000	  5.70268000	 -0.00200700	 -0.00347600	0.00000000
O	 -1.54048000	  2.93523000	  5.70268000	  0.00401400	 -0.00000000	-0.00000000
O	 -0.77024000	  4.26932000	 12.54588000	  0.00200700	 -0.00347600	0.00000000
O	  1.54047000	  2.93523000	 12.54588000	 -0.00401400	 -0.00000000	0.00000000
O	 -0.77024000	  1.60114000	 12.54588000	  0.00200700	  0.00347600	0.00000000
O	 -1.77175000	  3.06876000	 10.26481000	 -0.00200700	  0.00347600	-0.00000000
O	  0.77024000	  1.33409000	 10.26481000	 -0.00200700	 -0.00347600	-0.00000000
O	  3.54350000	  0.00000000	 10.26481000	  0.00401400	 -0.00000000	-0.00000000
30
Config_type=bulk_alpha_phase Weight=2.236067977 Lattice="5.094097896 0.0 0.0 -2.547048948 4.411618608 0.0 0.0 0.0 13.713676217" Energy=-255.07245821 Virial="-6.859945326513174 -0.0 0.0 -0.0 -6.859945326513174 -0.0 0.0 -0.0 -6.027515119009768" pbc="T T T" Properties=species:S:1:pos:R:3:forces:R:3
Ga	  0.00000000	  0.00000000	  1.97668000	  0.00000000	  0.00000000	0.00643900
Ga	  0.00000000	  2.94108000	  0.30894000	  0.00000000	  0.00000000	-0.00643900
Ga	  2.54705000	  1.47054000	  2.59454000	 -0.00000000	  0.00000000	-0.00643900
Ga	  0.00000000	  2.94108000	  4.26230000	  0.00000000	  0.00000000	0.00643900
Ga	  2.54705000	  1.47054000	  6.54790000	  0.00000000	  0.00000000	0.00643900
Ga	  0.00000000	  0.00000000	  4.88016000	  0.00000000	  0.00000000	-0.00643900
Ga	  0.00000000	  2.94108000	  7.16578000	  0.00000000	  0.00000000	-0.00643900
Ga	  0.00000000	  0.00000000	  8.83352000	  0.00000000	  0.00000000	0.00643900
Ga	  0.00000000	  2.94108000	 11.11913000	  0.00000000	  0.00000000	0.00643900
Ga	  2.54705000	  1.47054000	  9.45138000	 -0.00000000	  0.00000000	-0.00643900
Ga	  0.00000000	  0.00000000	 11.73700000	 -0.00000000	  0.00000000	-0.00643900
Ga	  2.54705000	  1.47054000	 13.40474000	 -0.00000000	  0.00000000	0.00643900
O	 -0.77177000	  1.33675000	  3.42842000	  0.00244800	 -0.00424000	-0.00000000
O	  1.54354000	  0.00000000	  3.42842000	 -0.00489600	  0.00000000	-0.00000000
O	  1.77528000	  3.07487000	  3.42842000	  0.00244800	  0.00424000	-0.00000000
O	  3.31882000	  0.13379000	  1.14280000	 -0.00244800	  0.00424000	-0.00000000
O	  3.31882000	  2.80729000	  1.14280000	 -0.00244800	 -0.00424000	-0.00000000
O	  1.00351000	  1.47054000	  1.14280000	  0.00489600	  0.00000000	-0.00000000
O	  1.77528000	  2.80729000	  7.99964000	  0.00244800	 -0.00424000	-0.00000000
O	  4.09059000	  1.47054000	  7.99964000	 -0.00489600	  0.00000000	-0.00000000
O	  1.77528000	  0.13379000	  7.99964000	  0.00244800	  0.00424000	-0.00000000
O	  0.77177000	  1.60433000	  5.71404000	 -0.00244800	  0.00424000	-0.00000000
O	  0.77177000	  4.27783000	  5.71404000	 -0.00244800	 -0.00424000	-0.00000000
O	 -1.54355000	  2.94108000	  5.71404000	  0.00489600	  0.00000000	-0.00000000
O	 -0.77177000	  4.27783000	 12.57087000	  0.00244800	 -0.00424000	-0.00000000
O	  1.54354000	  2.94108000	 12.57087000	 -0.00489600	  0.00000000	-0.00000000
O	 -0.77177000	  1.60433000	 12.57087000	  0.00244800	  0.00424000	-0.00000000
O	 -1.77528000	  3.07487000	 10.28526000	 -0.00244800	  0.00424000	-0.00000000
O	  0.77177000	  1.33675000	 10.28526000	 -0.00244800	 -0.00424000	-0.00000000
O	  3.55055000	  0.00000000	 10.28526000	  0.00489600	  0.00000000	-0.00000000
30
Config_type=bulk_alpha_phase Weight=2.236067977 Lattice="5.104225327 0.0 0.0 -2.552112663 4.420389221 0.0 0.0 0.0 13.740939987" Energy=-255.03181623 Virial="-9.017052766569769 -0.0 0.0 -0.0 -9.01705470163853 0.0 0.0 0.0 -7.920768585646384" pbc="T T T" Properties=species:S:1:pos:R:3:forces:R:3
Ga	  0.00000000	  0.00000000	  1.98061000	  0.00000000	 -0.00000000	0.00741000
Ga	  0.00000000	  2.94693000	  0.30955000	 -0.00000000	 -0.00000000	-0.00741000
Ga	  2.55211000	  1.47346000	  2.59970000	  0.00000000	 -0.00000000	-0.00741000
Ga	  0.00000000	  2.94693000	  4.27077000	  0.00000000	 -0.00000000	0.00741000
Ga	  2.55211000	  1.47346000	  6.56092000	  0.00000000	 -0.00000000	0.00741000
Ga	  0.00000000	  0.00000000	  4.88986000	  0.00000000	 -0.00000000	-0.00741000
Ga	  0.00000000	  2.94693000	  7.18002000	  0.00000000	 -0.00000000	-0.00741000
Ga	  0.00000000	  0.00000000	  8.85108000	  0.00000000	 -0.00000000	0.00741000
Ga	  0.00000000	  2.94693000	 11.14124000	  0.00000000	 -0.00000000	0.00741000
Ga	  2.55211000	  1.47346000	  9.47017000	 -0.00000000	 -0.00000000	-0.00741000
Ga	  0.00000000	  0.00000000	 11.76033000	  0.00000000	 -0.00000000	-0.00741000
Ga	  2.55211000	  1.47346000	 13.43139000	 -0.00000000	 -0.00000000	0.00741000
O	 -0.77331000	  1.33941000	  3.43523000	  0.00292600	 -0.00506700	-0.00000000
O	  1.54661000	  0.00000000	  3.43523000	 -0.00585100	 -0.00000000	-0.00000000
O	  1.77881000	  3.08098000	  3.43523000	  0.00292600	  0.00506700	-0.00000000
O	  3.32542000	  0.13406000	  1.14507000	 -0.00292600	  0.00506700	-0.00000000
O	  3.32542000	  2.81287000	  1.14507000	 -0.00292600	 -0.00506700	-0.00000000
O	  1.00550000	  1.47346000	  1.14507000	  0.00585100	 -0.00000000	-0.00000000
O	  1.77881000	  2.81287000	  8.01554000	  0.00292600	 -0.00506700	-0.00000000
O	  4.09873000	  1.47346000	  8.01554000	 -0.00585100	 -0.00000000	-0.00000000
O	  1.77881000	  0.13406000	  8.01554000	  0.00292600	  0.00506700	-0.00000000
O	  0.77331000	  1.60752000	  5.72540000	 -0.00292600	  0.00506700	-0.00000000
O	  0.77330000	  4.28633000	  5.72540000	 -0.00292600	 -0.00506700	-0.00000000
O	 -1.54661000	  2.94693000	  5.72540000	  0.00585100	 -0.00000000	-0.00000000
O	 -0.77331000	  4.28633000	 12.59587000	  0.00292600	 -0.00506700	-0.00000000
O	  1.54661000	  2.94693000	 12.59587000	 -0.00585100	 -0.00000000	-0.00000000
O	 -0.77331000	  1.60752000	 12.59587000	  0.00292600	  0.00506700	-0.00000000
O	 -1.77881000	  3.08098000	 10.30570000	 -0.00292600	  0.00506700	-0.00000000
O	  0.77331000	  1.33941000	 10.30570000	 -0.00292600	 -0.00506700	-0.00000000
O	  3.55761000	  0.00000000	 10.30570000	  0.00585100	 -0.00000000	-0.00000000
30
Config_type=bulk_alpha_phase Weight=2.236067977 Lattice="5.114352758 0.0 0.0 -2.557176379 4.429159835 0.0 0.0 0.0 13.768203757" Energy=-254.97849308 Virial="-11.183100610755936 -0.0 0.0 -0.0 -11.183102557365835 -0.0 0.0 -0.0 -9.82819783083373" pbc="T T T" Properties=species:S:1:pos:R:3:forces:R:3
Ga	  0.00000000	  0.00000000	  1.98454000	  0.00000000	  0.00000000	0.00823000
Ga	  0.00000000	  2.95277000	  0.31017000	 -0.00000000	  0.00000000	-0.00823000
Ga	  2.55718000	  1.47639000	  2.60486000	 -0.00000000	  0.00000000	-0.00823000
Ga	  0.00000000	  2.95277000	  4.27924000	  0.00000000	  0.00000000	0.00823000
Ga	  2.55718000	  1.47639000	  6.57394000	  0.00000000	  0.00000000	0.00823000
Ga	  0.00000000	  0.00000000	  4.89956000	 -0.00000000	  0.00000000	-0.00823000
Ga	  0.00000000	  2.95277000	  7.19427000	 -0.00000000	  0.00000000	-0.00823000
Ga	  0.00000000	  0.00000000	  8.86864000	 -0.00000000	  0.00000000	0.00823000
Ga	  0.00000000	  2.95277000	 11.16335000	  0.00000000	  0.00000000	0.00823000
Ga	  2.55718000	  1.47639000	  9.48896000	 -0.00000000	  0.00000000	-0.00823000
Ga	  0.00000000	  0.00000000	 11.78366000	 -0.00000000	  0.00000000	-0.00823000
Ga	  2.55718000	  1.47639000	 13.45804000	  0.00000000	  0.00000000	0.00823000
O	 -0.77484000	  1.34206000	  3.44205000	  0.00337000	 -0.00583700	-0.00000000
O	  1.54968000	  0.00000000	  3.44205000	 -0.00674000	  0.00000000	-0.00000000
O	  1.78234000	  3.08710000	  3.44205000	  0.00337000	  0.00583700	-0.00000000
O	  3.33202000	  0.13432000	  1.14735000	 -0.00337000	  0.00583700	0.00000000
O	  3.33202000	  2.81845000	  1.14735000	 -0.00337000	 -0.00583700	0.00000000
O	  1.00750000	  1.47639000	  1.14735000	  0.00674000	  0.00000000	0.00000000
O	  1.78234000	  2.81845000	  8.03145000	  0.00337000	 -0.00583700	-0.00000000
O	  4.10686000	  1.47639000	  8.03145000	 -0.00674000	  0.00000000	-0.00000000
O	  1.78234000	  0.13432000	  8.03145000	  0.00337000	  0.00583700	-0.00000000
O	  0.77484000	  1.61071000	  5.73676000	 -0.00337000	  0.00583700	0.00000000
O	  0.77484000	  4.29484000	  5.73676000	 -0.00337000	 -0.00583700	0.00000000
O	 -1.54968000	  2.95277000	  5.73676000	  0.00674000	  0.00000000	0.00000000
O	 -0.77484000	  4.29484000	 12.62086000	  0.00337000	 -0.00583700	-0.00000000
O	  1.54968000	  2.95277000	 12.62086000	 -0.00674000	  0.00000000	-0.00000000
O	 -0.77484000	  1.61071000	 12.62086000	  0.00337000	  0.00583700	-0.00000000
O	 -1.78234000	  3.08710000	 10.32615000	 -0.00337000	  0.00583700	0.00000000
O	  0.77484000	  1.34206000	 10.32615000	 -0.00337000	 -0.00583700	0.00000000
O	  3.56467000	  0.00000000	 10.32615000	  0.00674000	  0.00000000	0.00000000
30
Config_type=bulk_alpha_phase Weight=2.236067977 Lattice="5.124480189 0.0 0.0 -2.562240095 4.437930448 0.0 0.0 0.0 13.795467526" Energy=-254.91314956 Virial="-13.33947570637087 -0.0 -0.0 -0.0 -13.3394776645677 -0.0 -0.0 -0.0 -11.729984776825146" pbc="T T T" Properties=species:S:1:pos:R:3:forces:R:3
Ga	  0.00000000	  0.00000000	  1.98847000	  0.00000000	 -0.00000000	0.00908700
Ga	  0.00000000	  2.95862000	  0.31078000	  0.00000000	 -0.00000000	-0.00908700
Ga	  2.56224000	  1.47931000	  2.61002000	  0.00000000	 -0.00000000	-0.00908700
Ga	  0.00000000	  2.95862000	  4.28772000	  0.00000000	 -0.00000000	0.00908700
Ga	  2.56224000	  1.47931000	  6.58695000	  0.00000000	 -0.00000000	0.00908700
Ga	  0.00000000	  0.00000000	  4.90926000	  0.00000000	 -0.00000000	-0.00908700
Ga	  0.00000000	  2.95862000	  7.20851000	  0.00000000	 -0.00000000	-0.00908700
Ga	  0.00000000	  0.00000000	  8.88620000	  0.00000000	 -0.00000000	0.00908700
Ga	  0.00000000	  2.95862000	 11.18545000	  0.00000000	 -0.00000000	0.00908700
Ga	  2.56224000	  1.47931000	  9.50775000	  0.00000000	 -0.00000000	-0.00908700
Ga	  0.00000000	  0.00000000	 11.80700000	  0.00000000	 -0.00000000	-0.00908700
Ga	  2.56224000	  1.47931000	 13.48469000	  0.00000000	 -0.00000000	0.00908700
O	 -0.77637000	  1.34472000	  3.44887000	  0.00380600	 -0.00659200	-0.00000000
O	  1.55275000	  0.00000000	  3.44887000	 -0.00761200	 -0.00000000	-0.00000000
O	  1.78587000	  3.09321000	  3.44887000	  0.00380600	  0.00659200	-0.00000000
O	  3.33862000	  0.13459000	  1.14962000	 -0.00380600	  0.00659200	-0.00000000
O	  3.33862000	  2.82403000	  1.14962000	 -0.00380600	 -0.00659200	-0.00000000
O	  1.00949000	  1.47931000	  1.14962000	  0.00761200	 -0.00000000	-0.00000000
O	  1.78587000	  2.82403000	  8.04735000	  0.00380600	 -0.00659200	0.00000000
O	  4.11499000	  1.47931000	  8.04735000	 -0.00761200	 -0.00000000	0.00000000
O	  1.78587000	  0.13459000	  8.04735000	  0.00380600	  0.00659200	0.00000000
O	  0.77637000	  1.61390000	  5.74812000	 -0.00380600	  0.00659200	-0.00000000
O	  0.77637000	  4.30334000	  5.74812000	 -0.00380600	 -0.00659200	-0.00000000
O	 -1.55275000	  2.95862000	  5.74812000	  0.00761200	 -0.00000000	-0.00000000
O	 -0.77638000	  4.30334000	 12.64585000	  0.00380600	 -0.00659200	0.00000000
O	  1.55275000	  2.95862000	 12.64585000	 -0.00761200	 -0.00000000	-0.00000000
O	 -0.77638000	  1.61390000	 12.64585000	  0.00380600	  0.00659200	0.00000000
O	 -1.78587000	  3.09321000	 10.34660000	 -0.00380600	  0.00659200	0.00000000
O	  0.77637000	  1.34472000	 10.34660000	 -0.00380600	 -0.00659200	0.00000000
O	  3.57173000	  0.00000000	 10.34660000	  0.00761200	 -0.00000000	0.00000000
30
Config_type=bulk_alpha_phase Weight=2.236067977 Lattice="5.134607621 0.0 0.0 -2.56730381 4.446701062 0.0 0.0 0.0 13.822731296" Energy=-254.83578434 Virial="-15.448639219926282 0.0 -0.0 0.0 -15.448643159585586 -0.0 -0.0 -0.0 -13.588958501714584" pbc="T T T" Properties=species:S:1:pos:R:3:forces:R:3
Ga	  0.00000000	  0.00000000	  1.99240000	  0.00000000	 -0.00000000	0.00986900
Ga	  0.00000000	  2.96447000	  0.31139000	  0.00000000	 -0.00000000	-0.00986900
Ga	  2.56730000	  1.48223000	  2.61517000	  0.00000000	 -0.00000000	-0.00986900
Ga	  0.00000000	  2.96447000	  4.29619000	  0.00000000	 -0.00000000	0.00986900
Ga	  2.56730000	  1.48223000	  6.59997000	  0.00000000	 -0.00000000	0.00986900
Ga	  0.00000000	  0.00000000	  4.91897000	  0.00000000	 -0.00000000	-0.00986900
Ga	  0.00000000	  2.96447000	  7.22276000	  0.00000000	 -0.00000000	-0.00986900
Ga	  0.00000000	  0.00000000	  8.90376000	  0.00000000	 -0.00000000	0.00986900
Ga	  0.00000000	  2.96447000	 11.20756000	  0.00000000	 -0.00000000	0.00986900
Ga	  2.56730000	  1.48223000	  9.52654000	  0.00000000	 -0.00000000	-0.00986900
Ga	  0.00000000	  0.00000000	 11.83033000	  0.00000000	 -0.00000000	-0.00986900
Ga	  2.56730000	  1.48223000	 13.51134000	  0.00000000	 -0.00000000	0.00986900
O	 -0.77791000	  1.34738000	  3.45568000	  0.00423200	 -0.00733100	0.00000000
O	  1.55582000	  0.00000000	  3.45568000	 -0.00846500	 -0.00000000	0.00000000
O	  1.78939000	  3.09932000	  3.45568000	  0.00423200	  0.00733100	0.00000000
O	  3.34521000	  0.13485000	  1.15189000	 -0.00423200	  0.00733100	0.00000000
O	  3.34522000	  2.82961000	  1.15189000	 -0.00423200	 -0.00733100	0.00000000
O	  1.01149000	  1.48223000	  1.15189000	  0.00846500	 -0.00000000	0.00000000
O	  1.78940000	  2.82961000	  8.06326000	  0.00423200	 -0.00733100	0.00000000
O	  4.12312000	  1.48223000	  8.06326000	 -0.00846500	 -0.00000000	0.00000000
O	  1.78940000	  0.13485000	  8.06326000	  0.00423200	  0.00733100	0.00000000
O	  0.77791000	  1.61709000	  5.75948000	 -0.00423200	  0.00733100	0.00000000
O	  0.77791000	  4.31185000	  5.75948000	 -0.00423200	 -0.00733100	0.00000000
O	 -1.55582000	  2.96447000	  5.75948000	  0.00846500	 -0.00000000	0.00000000
O	 -0.77791000	  4.31185000	 12.67084000	  0.00423200	 -0.00733100	0.00000000
O	  1.55582000	  2.96447000	 12.67084000	 -0.00846500	 -0.00000000	0.00000000
O	 -0.77791000	  1.61709000	 12.67084000	  0.00423200	  0.00733100	0.00000000
O	 -1.78939000	  3.09932000	 10.36705000	 -0.00423200	  0.00733100	0.00000000
O	  0.77791000	  1.34738000	 10.36705000	 -0.00423200	 -0.00733100	0.00000000
O	  3.57879000	  0.00000000	 10.36705000	  0.00846500	 -0.00000000	0.00000000
30
Config_type=bulk_alpha_phase Weight=2.236067977 Lattice="5.144735052 0.0 0.0 -2.572367526 4.455471675 0.0 0.0 0.0 13.849995066" Energy=-254.74675152 Virial="-17.501915164488565 -0.0 0.0 -0.0 -17.50191912750547 -0.0 0.0 -0.0 -15.394802852545954" pbc="T T T" Properties=species:S:1:pos:R:3:forces:R:3
Ga	  0.00000000	  0.00000000	  1.99633000	 -0.00000000	  0.00000000	0.01048000
Ga	  0.00000000	  2.97031000	  0.31201000	 -0.00000000	  0.00000000	-0.01048000
Ga	  2.57237000	  1.48516000	  2.62033000	 -0.00000000	  0.00000000	-0.01048000
Ga	  0.00000000	  2.97031000	  4.30467000	 -0.00000000	  0.00000000	0.01048000
Ga	  2.57237000	  1.48516000	  6.61299000	 -0.00000000	  0.00000000	0.01048000
Ga	  0.00000000	  0.00000000	  4.92867000	 -0.00000000	  0.00000000	-0.01048000
Ga	  0.00000000	  2.97031000	  7.23701000	 -0.00000000	  0.00000000	-0.01048000
Ga	  0.00000000	  0.00000000	  8.92133000	 -0.00000000	  0.00000000	0.01048000
Ga	  0.00000000	  2.97031000	 11.22966000	 -0.00000000	  0.00000000	0.01048000
Ga	  2.57237000	  1.48516000	  9.54533000	 -0.00000000	  0.00000000	-0.01048000
Ga	  0.00000000	  0.00000000	 11.85367000	 -0.00000000	  0.00000000	-0.01048000
Ga	  2.57237000	  1.48516000	 13.53799000	 -0.00000000	  0.00000000	0.01048000
O	 -0.77944000	  1.35004000	  3.46250000	  0.00465600	 -0.00806500	0.00000000
O	  1.55889000	  0.00000000	  3.46250000	 -0.00931300	  0.00000000	0.00000000