ITEM: TIMESTEP
0
ITEM: NUMBER OF ATOMS
160
ITEM: BOX BOUNDS pp pp pp
0.0000000000000000e+00 8.4916681310000008e+00
0.0000000000000000e+00 8.4916681310000008e+00
0.0000000000000000e+00 2.5475004391999999e+01
ITEM: ATOMS id type x y z fx fy fz
1 2       1.230730000000       5.271350000000      22.410280000000      -0.414701253905       0.214648468407      -0.026531778769
2 2       5.277250000000       0.858560000000      13.865680000000       0.064831274694       0.053435669599      -0.276848392153
3 2       7.263630000000       7.510360000000       7.491660000000       0.007195823945      -0.247617449125      -0.206324313538
4 2       7.392730000000       7.233820000000      15.991150000000       0.080022920560       0.553570508939       0.012493242301
5 2       5.300870000000       5.318100000000       0.995790000000       0.310547109396       0.106558306777      -0.030932334800
6 2       3.074280000000       3.248840000000       7.306370000000       0.114777439847      -0.192640185261       0.108347024018
7 2       0.968190000000       1.059910000000       1.096260000000       0.141151011834       0.227966240762      -0.140621243228
8 2       5.244480000000       1.038230000000       5.316300000000      -0.029722934325       0.265563745478      -0.107608034757
9 2       3.228900000000       3.011500000000      15.881550000000      -0.076567101662       0.170037011426       0.042412980252
10 2       5.456630000000       1.135760000000      22.220890000000      -0.031637026366       0.083968678024       0.239789834885
11 2       3.189100000000       7.357320000000      11.677290000000      -0.194968682874       0.064203969989      -0.033611147010
12 2       7.529680000000       3.245780000000      20.091380000000      -0.106937387216      -0.441450468977       0.088173491824
13 2       1.034730000000       5.170940000000      13.674580000000       0.004695834670       0.231931318525       0.074442107601
14 2       7.428670000000       3.269770000000       3.249850000000      -0.336873082522      -0.102979071470       0.027577671647
15 2       5.169850000000       5.401620000000       9.506510000000       0.239855264978      -0.066683331773       0.169013888976
16 2       7.465410000000       7.549450000000      24.439840000000       0.008637290922      -0.315449004876      -0.074410639885
17 2       3.237290000000       7.555750000000      20.202350000000       0.136311551093      -0.253622950565      -0.146767601895
18 2       0.929520000000       1.090200000000       9.662730000000       0.204462794990      -0.176229091030      -0.190822321921
19 2       3.270060000000       7.528100000000       3.151140000000      -0.134200092792      -0.202978221057       0.076943922724
20 2       1.196010000000       1.043470000000      18.070570000000      -0.307603509655      -0.070792195050      -0.136582966017
21 2       3.993460000000       0.185920000000       8.502510000000       0.070840802905      -0.057433428197       0.017874132831
22 2       6.221270000000       6.205050000000      12.714660000000       0.342921156938      -0.068595184374      -0.156707814904
23 2       2.189010000000       2.154150000000      21.244160000000      -0.000213420101      -0.090479094487       0.088069289622
24 2       6.499250000000       6.393200000000      21.208860000000      -0.043289795205      -0.042711966368       0.356362451642
25 2       1.995150000000       6.497900000000       8.405340000000      -0.166983317545      -0.239652612552      -0.049371526087
26 2       8.434360000000       2.096110000000       6.329030000000      -0.290301030917      -0.219541150943       0.162205147172
27 2       2.022450000000       2.128880000000       4.281340000000       0.180282833496      -0.101185715063      -0.257066303214
28 2       0.061810000000       2.044290000000      14.834720000000      -0.219365119378      -0.085700774161       0.352879250404
29 2       0.160270000000       6.298450000000      19.058500000000       0.096242062605       0.346980627341       0.338983607306
30 2       6.360370000000       0.054760000000       2.132010000000       0.012219266360      -0.013317283981      -0.034584884319
31 2       6.180000000000       0.072860000000      10.675100000000       0.449507802787      -0.128828046159       0.240955769498
32 2       4.223840000000       2.228330000000      19.059530000000       0.389120828208       0.161536851782      -0.264887358714
33 2       6.501950000000       8.467060000000      19.120680000000      -0.209156187184       0.521934374315      -0.274704429957
34 2       6.446160000000       2.067400000000      16.958400000000      -0.067435279860      -0.502855091751       0.313840077328
35 2       0.163870000000       2.089280000000      23.411560000000       0.000062511977       0.266867157536       0.111427779425
36 2       2.070320000000       8.280490000000      14.951580000000      -0.151362032390       0.140431914826      -0.004346192511
37 2       4.064580000000       6.118540000000      14.866770000000       0.164282559207       0.098514378638       0.161686441159
38 2       6.320210000000       4.261750000000       6.405100000000      -0.250129829971       0.236998402488      -0.341149056443
39 2       4.275350000000       6.467850000000      23.390910000000       0.358814002551       0.440389527241      -0.151686779389
40 2       0.096830000000       4.243210000000      16.976510000000       0.177482538184      -0.302890451134      -0.172825661428
41 2       2.117430000000       4.300580000000       2.121450000000      -0.016349542537      -0.008958205064      -0.011447157155
42 2       4.179070000000       4.372330000000      21.173880000000       0.328198347392      -0.074740316330      -0.239255019900
43 2       4.194980000000       8.300230000000      17.043940000000       0.437855168862       0.100243705407       0.271307056792
44 2       6.410450000000       4.296550000000      23.287510000000       0.383252983764      -0.088213392514       0.360769001539
45 2       8.430020000000       6.311920000000      10.583280000000      -0.199120022917       0.227679790642       0.301736250374
46 2       8.479480000000       8.411480000000      12.768000000000      -0.161146376065      -0.185462623252      -0.234717599209
47 2       0.015970000000       4.341790000000       0.049850000000      -0.348934647858      -0.098025122881      -0.313581875146
48 2       6.296270000000       4.119130000000      14.828220000000       0.151338144027       0.001401585677      -0.288040820390
49 2       4.211880000000       4.245240000000       4.197650000000       0.350637801487       0.152180048569       0.276776298782
50 2       2.152560000000       2.062070000000      12.670240000000       0.300832250513      -0.272193095356       0.222625996769
51 2       2.119270000000       4.178430000000      10.634930000000       0.194696232217       0.281536386834      -0.236947581111
52 2       0.039920000000       6.532400000000       2.226010000000       0.076268367868      -0.259688903046       0.078877849501
53 2       0.205450000000       8.451040000000      21.331710000000      -0.260736312087      -0.033361825274      -0.009970442412
54 2       4.178620000000       2.053650000000       2.015330000000      -0.034048619031       0.269557135860      -0.053853892746
55 2       6.291850000000       2.074590000000      25.426060000000      -0.091690549443       0.336534964831      -0.143942873372
56 2       8.479840000000       4.186760000000       8.489250000000      -0.147085449302       0.167610558335      -0.014297773848
57 2       6.161570000000       2.191740000000       8.590290000000       0.234610999762       0.163830850445       0.017977053214
58 2       4.079840000000       6.514880000000       6.313430000000       0.031876685907      -0.383790832238      -0.276325651934
59 2       6.425270000000       6.519500000000       4.305510000000       0.146675985650      -0.408290420165       0.119004938996
60 2       2.211250000000       6.471000000000      25.445910000000      -0.264177313426       0.108826438986       0.223525210148
61 2       5.226770000000       3.160120000000      11.716060000000      -0.046005831125      -0.008812599465       0.009663264804
62 2       3.222890000000       1.078870000000      24.388760000000       0.104346503358      -0.187795140969       0.101348181387
63 2       3.202160000000       5.247140000000      18.036280000000      -0.020590078459      -0.010015904518      -0.035027238356
64 2       1.002190000000       7.511550000000       5.305010000000      -0.066109198897       0.035351313727      -0.072405837858
65 1       2.152180000000       2.164090000000       2.144760000000       0.289064465699       0.108456953501       0.250578405107
66 1       6.244550000000       6.313970000000       6.330600000000       0.051818973482      -0.151690886010      -0.217994222209
67 1       4.337630000000       8.413210000000       6.521780000000       0.009569775492       0.125877562252      -0.146477800619
68 1       4.371250000000       0.130550000000       2.145830000000      -0.028346481681      -0.062889444131      -0.057481456901
69 1       8.361680000000       6.490780000000       4.168120000000       0.246390114026       0.016636694353       0.228461733165
70 1       0.039690000000       2.245330000000       4.339810000000       0.139730482246      -0.174221090985       0.105817419126
71 1       6.266030000000       4.213270000000       8.462780000000       0.217395637914      -0.316088240117      -0.097339000665
72 1       1.907410000000       4.523250000000       0.260380000000      -0.096909327481      -0.241213384535       0.204346271312
73 1       8.477560000000       4.417030000000       2.112190000000       0.275193399170       0.073791189655      -0.110962988389
74 1       8.200990000000       4.050500000000       6.630820000000      -0.031678373795       0.122347415953       0.186600953227
75 1       4.355830000000       2.096060000000       0.069100000000      -0.261998010351       0.024638533339      -0.160440041738
76 1       4.070770000000       6.459860000000       8.355860000000      -0.176224275472       0.123534402199      -0.124069886259
77 1       2.137130000000       0.078190000000       4.231330000000       0.099508313185       0.210427209221      -0.025629182712
78 1       6.215660000000       8.428700000000       4.143640000000       0.004973576458       0.243052643486       0.039837449710
79 1       2.138940000000       6.520190000000       6.455160000000      -0.192367959912       0.050547610730      -0.253484932824
80 1       6.309180000000       2.143510000000       2.060510000000      -0.094490096983      -0.235823812266      -0.091351417857
81 1       4.246460000000       4.175910000000       2.130470000000      -0.279747467127      -0.117574181106       0.131036141286
82 1       4.279200000000       4.388600000000       6.248740000000      -0.137499080029      -0.094574822394      -0.041459349288
83 1       8.295800000000       2.129870000000       8.487230000000      -0.035418930686       0.193385641334      -0.277534706877
84 1       0.039920000000       6.392480000000       0.081130000000       0.352536867502      -0.099328833432      -0.078295856287
85 1       8.351620000000       0.066100000000       6.390570000000       0.126767155091       0.269190768387      -0.015413277225
86 1       8.351640000000       8.460170000000       2.099550000000       0.017581317431       0.053643905083       0.053509207863
87 1       4.293570000000       6.314250000000       4.300470000000      -0.093887343010      -0.002775183462       0.137601395423
88 1       4.180990000000       2.195330000000       4.172440000000      -0.289431058851       0.044693384513       0.073563599406
89 1       6.341300000000       2.187440000000       6.433460000000       0.312234092706       0.028458659803       0.010847122260
90 1       2.080330000000       6.430730000000       2.098020000000      -0.294049546995      -0.092899712087      -0.216045818321
91 1       2.322470000000       4.078010000000       3.981260000000       0.111130753972       0.238305926286      -0.171873538861
92 1       6.244140000000       4.381500000000       4.335570000000       0.097641123094       0.024133091706       0.073793793209
93 1       6.493230000000       0.162370000000       0.114890000000       0.000706274341      -0.190540160805      -0.013402969884
94 1       2.081860000000       8.441700000000       8.678730000000       0.122280058033       0.362983822365       0.087830405133
95 1       6.410750000000       6.450000000000       2.186470000000       0.070708952448       0.213858416033       0.139057758628
96 1       1.928410000000       2.229720000000       6.237840000000      -0.059318847398      -0.129182302436       0.103282597731
97 1       2.009460000000       2.197030000000      10.706560000000       0.270277733914       0.075353906346       0.002828987513
98 1       6.293520000000       6.199500000000      14.788690000000      -0.158032511251      -0.240273887767      -0.194999508187
99 1       4.167640000000       8.307280000000      15.005530000000      -0.079019664870      -0.225421987241       0.159955650791
100 1       4.283460000000       8.296960000000      10.474430000000      -0.210638246137       0.067850320873       0.118178623490
101 1       8.343640000000       6.375230000000      12.633370000000       0.050307879734      -0.089808098369      -0.074192206105
102 1       0.196290000000       1.794420000000      12.968780000000      -0.169643065257      -0.067802928128      -0.024473750583
103 1       6.660450000000       3.932630000000      16.708810000000      -0.170986552796      -0.061610629593      -0.018023405596
104 1       2.053730000000       4.369260000000       8.492210000000      -0.177445414953       0.011616856941       0.280759535058
105 1       0.150550000000       4.435720000000      10.349320000000      -0.175648424229       0.046654170283      -0.187029786590
106 1       0.015360000000       4.071540000000      14.866320000000      -0.177269659746      -0.049298421424       0.258182852888
107 1       4.214310000000       2.102510000000       8.304110000000      -0.410080176959      -0.106515670460      -0.064097452705
108 1       4.144810000000       6.383270000000      16.853800000000      -0.096428111566      -0.089854427472       0.304243470336
109 1       2.061810000000       8.452480000000      12.790770000000      -0.037351636349       0.301873458274      -0.116203022149
110 1       6.421400000000       8.331220000000      12.687700000000       0.110963292780       0.108530709586      -0.165235627683
111 1       2.139500000000       6.347320000000      14.672560000000       0.069149669901      -0.398915298309      -0.105077740858
112 1       6.172230000000       2.017780000000      10.533320000000      -0.023598997417       0.193047996554       0.224058606557
113 1       4.163190000000       4.294440000000      10.622840000000      -0.265319753621      -0.169004839424       0.063635251500
114 1       4.339330000000       4.203610000000      14.980020000000      -0.067435744178       0.231159307012       0.037706677103
115 1       0.034580000000       2.056380000000      16.876280000000      -0.024718633845       0.246608081056       0.064566554871
116 1       8.456490000000       6.394670000000       8.520540000000       0.320498405237      -0.215465202512       0.146492749592
117 1       0.050720000000       8.361930000000      14.866210000000       0.269948830030       0.088857479896      -0.059484221746
118 1       8.303060000000       8.361710000000      10.722970000000       0.154417546336       0.109908534368       0.049479932730
119 1       4.322830000000       6.461240000000      12.893220000000      -0.102127675676      -0.024238107422      -0.044031834576
120 1       4.214720000000       1.974820000000      12.790730000000      -0.272301105317       0.004194611199      -0.029697820978
121 1       6.462610000000       1.985130000000      14.890900000000       0.229192068185       0.374201011370       0.083946273151
122 1       2.024880000000       6.286910000000      10.550080000000      -0.056994032469      -0.246314887743       0.022752609391
123 1       2.046960000000       4.050300000000      12.594410000000       0.112468753652      -0.014052451681       0.008121610937
124 1       6.257680000000       4.265890000000      12.866500000000      -0.116273892222      -0.203618097191      -0.211448557976
125 1       6.202410000000       0.112020000000       8.631950000000      -0.133221331508       0.190531640156       0.156511927796
126 1       2.265600000000       0.071310000000      16.881670000000      -0.245507595920      -0.104766690885       0.129450513851
127 1       6.380410000000       6.401250000000      10.665390000000       0.143089813565      -0.076294647082       0.256809654754
128 1       2.130880000000       1.911330000000      14.780960000000      -0.258364049376       0.028317533226      -0.319068855879
129 1       2.308300000000       2.011070000000      19.227250000000      -0.080152272276      -0.058991630400       0.010370484103
130 1       6.422800000000       6.402760000000      23.255270000000      -0.212287769853      -0.031466897378       0.050143560703
131 1       4.382690000000       0.042000000000      23.303340000000      -0.013004079214      -0.299447697645       0.037438265664
132 1       4.432920000000       0.064060000000      19.035620000000       0.039374901250      -0.180325592546      -0.062108629985
133 1       0.119210000000       6.437190000000      21.268010000000       0.041351734172       0.160033255461      -0.227809686518
134 1       0.119390000000       2.105350000000      21.290030000000       0.242246989526       0.026704117545       0.133507952271
135 1       6.482710000000       4.211540000000      25.377720000000      -0.089178287541      -0.049271119863      -0.077581327611
136 1       2.135670000000       4.096150000000      16.967040000000      -0.178345380766       0.058782506131       0.000276808782
137 1       0.036340000000       4.318480000000      18.960490000000       0.214974066070       0.146298571417      -0.053849655223
138 1       8.453340000000       4.198170000000      23.461960000000       0.107398089266       0.117305643372       0.000028280617
139 1       4.404410000000       1.974730000000      17.062640000000       0.073841188603       0.167183819799       0.078911128623
140 1       4.203570000000       6.342660000000      25.369790000000      -0.139766711754       0.174028452472      -0.076195587849
141 1       2.116200000000       0.144410000000      21.203800000000       0.021771807981      -0.046674367058       0.040223295456
142 1       6.567600000000       0.023950000000      21.155030000000       0.047073581331      -0.321170920281      -0.202157963620
143 1       2.298290000000       6.366410000000      23.488000000000      -0.032618190782       0.130793539503      -0.066631632645
144 1       6.384030000000       2.026260000000      19.018730000000      -0.080764831552       0.018805387711      -0.102079893022
145 1       4.233570000000       4.169310000000      19.223780000000      -0.041987840244       0.170139390186      -0.310792820344
146 1       4.550360000000       4.540120000000      23.058190000000       0.044854124960      -0.193677219594      -0.066173860908
147 1       8.429330000000       2.275140000000      25.425130000000       0.101738033800       0.039921903645      -0.129605266547
148 1       8.489460000000       6.208280000000      17.079770000000       0.317394376949      -0.080533585228      -0.000982210906
149 1       8.393210000000       0.169070000000      23.249780000000       0.019467065594      -0.192541613072       0.117773040416
150 1       0.059520000000       8.457340000000      19.182670000000      -0.009193412792      -0.319016855699      -0.086392795601
151 1       4.409010000000       6.441170000000      21.244410000000       0.068403309272      -0.281275937132       0.191820223006
152 1       4.302450000000       2.229800000000      21.124460000000      -0.299979885638       0.243052059381      -0.123643787175
153 1       6.493560000000       2.277260000000      23.402930000000      -0.009600006884       0.075749942022       0.140587853664
154 1       2.180230000000       6.401330000000      19.140240000000      -0.119990069765       0.105008836369       0.043814107955
155 1       2.256570000000       4.136320000000      21.346190000000      -0.093259504594       0.051271974704      -0.072132063818
156 1       6.478570000000       4.361080000000      21.244090000000      -0.293673491899       0.120678478706       0.099629402468
157 1       6.330830000000       0.004000000000      17.062000000000       0.083174523269       0.042301070721       0.106422069584
158 1       2.102440000000       0.017590000000       0.012780000000      -0.073296626083      -0.164801315312       0.024788189670
159 1       6.719640000000       6.584500000000      19.341420000000      -0.188374202299       0.037908067466      -0.013332476022
160 1       2.078550000000       2.062570000000      23.253100000000       0.149223393766      -0.068692168249       0.155324829905
