ITEM: TIMESTEP
0
ITEM: NUMBER OF ATOMS
160
ITEM: BOX BOUNDS pp pp pp
0.0000000000000000e+00 8.4295796900000006e+00
0.0000000000000000e+00 8.4295796900000006e+00
0.0000000000000000e+00 2.5288739070999998e+01
ITEM: ATOMS id type c_pe_atom
1 2     -10.592338520067
2 2      -9.636513753011
3 2      -9.723265189507
4 2     -10.621094437496
5 2     -10.685867019585
6 2     -10.608001300176
7 2      -9.739849614786
8 2      -9.864206189184
9 2      -9.647842970418
10 2      -9.692444362246
11 2      -9.744451253566
12 2     -10.752206057190
13 2     -10.615235487566
14 2     -10.658032452354
15 2      -9.693257555145
16 2     -10.038881958935
17 2      -9.721619030985
18 2     -10.538390652517
19 2      -9.729473184263
20 2      -9.969520972162
21 2      -6.179685890405
22 2      -5.533076639794
23 2      -6.024387982848
24 2      -4.808667805675
25 2      -5.489804957032
26 2      -6.628277471685
27 2      -6.688210370103
28 2      -4.676053718101
29 2      -6.900666790038
30 2      -5.736117284290
31 2      -5.497105812392
32 2      -5.687762220422
33 2      -5.076630948370
34 2      -5.102791514975
35 2      -5.527968188908
36 2      -4.962629330260
37 2      -6.288653751604
38 2      -5.130856745704
39 2      -6.694156497383
40 2      -6.684537487118
41 2      -6.002148741160
42 2      -6.307141805548
43 2      -5.573973750292
44 2      -5.302109489810
45 2      -5.085906734540
46 2      -5.036595573961
47 2      -5.196618768628
48 2      -6.243251448983
49 2      -5.227663783772
50 2      -6.433631993656
51 2      -6.571260284145
52 2      -5.343500847916
53 2      -4.954544570510
54 2      -5.427541847005
55 2      -5.490400470778
56 2      -5.923875758864
57 2      -5.528948090973
58 2      -5.551136520339
59 2      -5.499314021955
60 2      -6.685658230177
61 2     -10.377658513757
62 2     -10.239310450649
63 2     -10.088127855606
64 2     -10.290125694357
65 1      -6.566032514122
66 1      -6.809596780288
67 1      -3.340291751663
68 1      -2.873448486318
69 1      -2.681821578248
70 1      -2.974612794660
71 1      -6.615732587880
72 1      -2.886773905317
73 1      -6.690401531783
74 1      -2.826871486147
75 1      -2.710750678433
76 1      -7.241063546044
77 1      -3.648975072105
78 1      -3.417706601241
79 1      -2.782382011433
80 1      -7.667908388590
81 1      -6.651883131466
82 1      -6.558639681593
83 1      -6.836398795262
84 1      -6.992613968258
85 1      -3.298262274913
86 1      -2.970671504346
87 1      -6.532703200505
88 1      -6.991680144750
89 1      -7.054090316014
90 1      -6.633835856113
91 1      -2.869310657536
92 1      -6.267641088882
93 1      -3.441065785882
94 1      -2.805569375691
95 1      -7.763834791449
96 1      -2.864113009323
97 1      -2.903656924785
98 1      -7.309554807279
99 1      -7.232860901482
100 1      -3.285744962889
101 1      -6.323718897533
102 1      -3.163562075091
103 1      -3.579395929582
104 1      -6.745074212915
105 1      -2.910817155754
106 1      -6.572898361430
107 1      -2.909748487521
108 1      -3.131735475187
109 1      -6.994393284995
110 1      -6.521812453425
111 1      -2.945830426123
112 1      -2.775051166121
113 1      -3.467820079094
114 1      -2.719939436603
115 1      -6.649962312829
116 1      -6.654658723179
117 1      -6.945275473134
118 1      -6.586524859856
119 1      -3.407440823207
120 1      -3.734164748500
121 1      -6.882305298726
122 1      -7.143883215293
123 1      -3.080732295223
124 1      -2.564083782937
125 1      -7.139839670391
126 1      -3.072152635863
127 1      -6.930140099824
128 1      -6.955941699906
129 1      -3.543779279638
130 1      -6.621082722688
131 1      -3.532502001953
132 1      -6.651559821927
133 1      -6.846807385103
134 1      -7.761519812985
135 1      -6.325313392642
136 1      -3.711687783574
137 1      -2.936120680534
138 1      -6.330875248704
139 1      -6.737628799688
140 1      -2.878533895056
141 1      -3.020051631709
142 1      -6.809686695066
143 1      -2.898224197578
144 1      -6.576531648282
145 1      -2.472836236771
146 1      -3.558080492491
147 1      -6.630858321351
148 1      -2.907033782024
149 1      -2.974664117944
150 1      -6.920429477133
151 1      -6.615122706685
152 1      -7.274540431020
153 1      -6.498733814940
154 1      -3.440785575698
155 1      -2.614383503566
156 1      -6.411489302246
157 1      -6.499722943622
158 1      -3.598346898674
159 1      -3.056637800779
160 1      -3.157829972695
