ITEM: TIMESTEP
0
ITEM: NUMBER OF ATOMS
160
ITEM: BOX BOUNDS pp pp pp
0.0000000000000000e+00 8.4295796900000006e+00
0.0000000000000000e+00 8.4295796900000006e+00
0.0000000000000000e+00 2.5288739070999998e+01
ITEM: ATOMS id type x y z fx fy fz
1 2       1.221210000000       5.231980000000      22.243540000000      -0.386620417369       0.162755914061      -0.044330386427
2 2       5.237650000000       0.851590000000      13.764740000000       0.032609234103       0.044894633671      -0.234241134974
3 2       7.206420000000       7.452900000000       7.438790000000      -0.010324255313      -0.206251959250      -0.203202074202
4 2       7.337380000000       7.182800000000      15.874050000000       0.028035984778       0.512931752341       0.063196019823
5 2       5.262280000000       5.284150000000       0.989390000000       0.297496014014       0.035244861646      -0.064543924844
6 2       3.052210000000       3.226750000000       7.257090000000       0.160855194218      -0.154443964398       0.107308589758
7 2       0.959650000000       1.054410000000       1.095660000000       0.090625903325       0.148496506636      -0.129103060449
8 2       5.204810000000       1.034350000000       5.278060000000      -0.014540706473       0.170275058127      -0.120487440615
9 2       3.203510000000       2.987860000000      15.760020000000      -0.070295577855       0.135115465922       0.009328636428
10 2       5.419340000000       1.125100000000      22.056860000000      -0.006643042908       0.032710044289       0.245804411315
11 2       3.160880000000       7.301970000000      11.590920000000      -0.128202428876       0.074848595806      -0.062554282369
12 2       7.473940000000       3.217250000000      19.944760000000      -0.114207641235      -0.423744763440       0.079493388004
13 2       1.026680000000       5.133850000000      13.573960000000      -0.024245079488       0.244150530053       0.101732500527
14 2       7.375670000000       3.243790000000       3.225970000000      -0.339478956900      -0.051858240720       0.066221060995
15 2       5.129570000000       5.365460000000       9.434740000000       0.240377073952      -0.048074468630       0.176024569356
16 2       7.408910000000       7.490870000000      24.262560000000       0.016157091178      -0.215190905865      -0.049414088116
17 2       3.215300000000       7.501050000000      20.060090000000       0.093475115690      -0.202859712173      -0.101129930570
18 2       0.921230000000       1.081600000000       9.588680000000       0.140840861443      -0.205085788014      -0.181282610241
19 2       3.247100000000       7.473810000000       3.122450000000      -0.093718332081      -0.139524706633       0.060734807487
20 2       1.187550000000       1.040440000000      17.939900000000      -0.258210862745      -0.085837416309      -0.115806008590
21 2       3.958730000000       0.190990000000       8.439940000000       0.070921546665      -0.043949187550       0.024032144076
22 2       6.178280000000       6.156380000000      12.622480000000       0.333154269075      -0.020886085951      -0.177088491788
23 2       2.175640000000       2.144200000000      21.088990000000      -0.005285256509      -0.118397566302       0.069069901947
24 2       6.450330000000       6.338780000000      21.044450000000      -0.004796796540       0.020214295010       0.379008539745
25 2       1.976770000000       6.446560000000       8.342090000000      -0.136246911939      -0.217864905152      -0.037495271585
26 2       8.378090000000       2.076790000000       6.283460000000      -0.269302006387      -0.180789049541       0.133629520166
27 2       2.009330000000       2.111090000000       4.252050000000       0.153089443300      -0.095348478681      -0.243676231968
28 2       0.055120000000       2.030630000000      14.719410000000      -0.141320413828      -0.078884298251       0.371992738000
29 2       0.163220000000       6.249540000000      18.920480000000       0.058480525732       0.343131634967       0.311486999648
30 2       6.310650000000       0.054810000000       2.117230000000       0.032613009250      -0.011639266933      -0.058444093499
31 2       6.136500000000       0.071920000000      10.598340000000       0.439892335245      -0.127328905742       0.219525841405
32 2       4.199500000000       2.214220000000      18.917780000000       0.345530403124       0.085795873629      -0.231623956669
33 2       6.454050000000       8.396370000000      18.975310000000      -0.239160314372       0.476719755333      -0.246693995735
34 2       6.399750000000       2.058540000000      16.839100000000      -0.071340049727      -0.486661585142       0.289963188040
35 2       0.162380000000       2.076590000000      23.240350000000      -0.035901530808       0.268825735550       0.089618495164
36 2       2.050110000000       8.221240000000      14.845740000000      -0.134382252864       0.090948237698       0.029364056477
37 2       4.034610000000       6.071330000000      14.757950000000       0.162829278100       0.080552093037       0.131157548385
38 2       6.283280000000       4.231110000000       6.351640000000      -0.279958706716       0.195474693020      -0.320816457753
39 2       4.241350000000       6.426550000000      23.221900000000       0.352624170728       0.417356768432      -0.152404049320
40 2       0.098030000000       4.216950000000      16.853250000000       0.158297377399      -0.319296778475      -0.129372036837
41 2       2.098240000000       4.267130000000       2.106250000000       0.002500313758      -0.002063588573      -0.005957106747
42 2       4.156810000000       4.338260000000      21.019940000000       0.287489876386      -0.059200909418      -0.283906978962
43 2       4.168100000000       8.238440000000      16.919480000000       0.449364676132       0.109980676304       0.221462944555
44 2       6.352890000000       4.267680000000      23.125620000000       0.411107861261      -0.091286549205       0.342758648394
45 2       8.365520000000       6.255700000000      10.511460000000      -0.162641266721       0.256904898765       0.271293827070
46 2       8.416010000000       8.355570000000      12.669640000000      -0.167799600817      -0.173642783670      -0.209910095636
47 2       0.022550000000       4.308790000000       0.044850000000      -0.362116542430      -0.097469484959      -0.333015352493
48 2       6.254330000000       4.091900000000      14.724730000000       0.151538628872       0.007795463121      -0.322954022669
49 2       4.174280000000       4.217670000000       4.169860000000       0.359164121988       0.145026897920       0.297592746771
50 2       2.138790000000       2.048140000000      12.573290000000       0.284443281756      -0.220834778252       0.236380441274
51 2       2.106820000000       4.141970000000      10.552750000000       0.134034208520       0.285988553639      -0.215888923111
52 2       0.041530000000       6.481780000000       2.209640000000       0.059779706120      -0.234885256098       0.048434902766
53 2       0.204180000000       8.388570000000      21.176000000000      -0.243835860362      -0.049320145679       0.006477104694
54 2       4.151030000000       2.048160000000       1.997190000000      -0.048543853511       0.235134590521      -0.006251482455
55 2       6.245880000000       2.063020000000      25.239400000000      -0.061277797901       0.302781402785      -0.150041416171
56 2       8.409210000000       4.160180000000       8.428080000000      -0.083689275130       0.138155057963      -0.030053938765
57 2       6.123130000000       2.177240000000       8.530810000000       0.192291633276       0.131627250549      -0.002705947538
58 2       4.048300000000       6.463510000000       6.266240000000       0.052209728283      -0.387676237387      -0.252821286426
59 2       6.379810000000       6.468190000000       4.271950000000       0.097460143294      -0.379653292039       0.127725829396
60 2       2.195850000000       6.425310000000      25.260300000000      -0.247660092415       0.100307382245       0.189988336837
61 2       5.194560000000       3.140260000000      11.634410000000      -0.116834182280      -0.028416636865       0.025333681704
62 2       3.197580000000       1.075860000000      24.211650000000       0.116555162492      -0.246750057432       0.075561306237
63 2       3.184530000000       5.207260000000      17.905970000000      -0.001032559498      -0.012608386056      -0.027575952001
64 2       0.994140000000       7.448170000000       5.266030000000      -0.038275516878       0.115340010321      -0.067380726594
65 1       2.135710000000       2.153950000000       2.132570000000       0.259960711440       0.145224573244       0.233767159795
66 1       6.193960000000       6.270100000000       6.285130000000       0.064385792167      -0.104331997063      -0.180072921466
67 1       4.289720000000       8.358350000000       6.470620000000       0.010460898012       0.126775218991      -0.136719141955
68 1       4.336180000000       0.130140000000       2.113160000000      -0.038873597528      -0.022721495089      -0.008482669239
69 1       8.306390000000       6.418720000000       4.143390000000       0.274111982458       0.012281823348       0.234875685947
70 1       0.035190000000       2.209210000000       4.303270000000       0.166889758361      -0.075257973726       0.166998261755
71 1       6.230220000000       4.189130000000       8.399890000000       0.245506023213      -0.273475796072      -0.113665135310
72 1       1.910600000000       4.476950000000       0.241890000000      -0.053407414407      -0.113115287524       0.144840039428
73 1       8.418290000000       4.382340000000       2.093000000000       0.280174447169       0.084097916229      -0.127189798790
74 1       8.161480000000       4.031920000000       6.565180000000      -0.023350683470       0.024123944806       0.139242118875
75 1       4.318030000000       2.105320000000       0.059790000000      -0.292708636391       0.032753652360      -0.165389899032
76 1       4.040230000000       6.417440000000       8.296160000000      -0.143754625716       0.102393703786      -0.109248209488
77 1       2.122570000000       0.079620000000       4.199950000000       0.086890350533       0.184151619307      -0.012704887605
78 1       6.180050000000       8.372730000000       4.114860000000      -0.018272981881       0.198770048559       0.044135012309
79 1       2.116990000000       6.447750000000       6.401440000000      -0.204230381922       0.036010021291      -0.274125929261
80 1       6.262380000000       2.133810000000       2.042690000000      -0.086025352842      -0.189046023669      -0.087336160877
81 1       4.212590000000       4.147620000000       2.118380000000      -0.283983667130      -0.112111926028       0.135982997482
82 1       4.248700000000       4.357260000000       6.207060000000      -0.158418594132      -0.109388227783      -0.017183366199
83 1       8.231050000000       2.113160000000       8.419980000000      -0.036268843131       0.245329022819      -0.280889506503
84 1       0.042420000000       6.345500000000       0.086410000000       0.324771774563      -0.105584153983      -0.082547007218
85 1       8.289560000000       0.065730000000       6.344090000000       0.109551178191       0.199157571141      -0.037619749726
86 1       8.289830000000       8.401630000000       2.100280000000       0.037874546050       0.018508656390       0.006717476127
87 1       4.265600000000       6.270880000000       4.264180000000      -0.122737869048       0.029330103101       0.109823713229
88 1       4.150990000000       2.180240000000       4.137890000000      -0.285598445897       0.061254296995       0.064538078908
89 1       6.294290000000       2.174230000000       6.390880000000       0.281366252951       0.037387724225      -0.004729045283
90 1       2.066400000000       6.379100000000       2.080630000000      -0.268540114619      -0.135309665792      -0.195797157314
91 1       2.288090000000       4.059950000000       3.968820000000       0.066173213364       0.113667166874      -0.104472083751
92 1       6.198830000000       4.348790000000       4.300690000000       0.099370543528       0.029974469367       0.062654159915
93 1       6.431320000000       0.155300000000       0.113300000000       0.029114480485      -0.129751187038      -0.010915868339
94 1       2.055820000000       8.382030000000       8.594160000000       0.127729087352       0.314878819332       0.076973745735
95 1       6.363810000000       6.398900000000       2.172010000000       0.069728640811       0.169043208183       0.139699634023
96 1       1.923570000000       2.193720000000       6.201650000000      -0.032372623985      -0.120625706820       0.110734435726
97 1       2.015550000000       2.171060000000      10.618170000000       0.210467621695       0.065010902595       0.031342974796
98 1       6.244630000000       6.157470000000      14.681210000000      -0.160112919817      -0.216655643469      -0.189062809653
99 1       4.135490000000       8.243360000000      14.893880000000      -0.045651236366      -0.200460958857       0.136659393204
100 1       4.243210000000       8.250870000000      10.400990000000      -0.174166042106       0.030133852501       0.117334011739
101 1       8.282420000000       6.327850000000      12.545360000000       0.035384383191      -0.117490145926      -0.066093973514
102 1       0.182370000000       1.798980000000      12.853280000000      -0.087275346334      -0.018009069284      -0.068200275143
103 1       6.598440000000       3.922510000000      16.606800000000      -0.105126574418       0.028769663983       0.020166585659
104 1       2.038150000000       4.339020000000       8.437090000000      -0.231653512887       0.007362559164       0.261906949002
105 1       0.138100000000       4.381670000000      10.290650000000      -0.066152534442       0.008075016868      -0.108290186686
106 1       0.007990000000       4.044120000000      14.760700000000      -0.186197507128      -0.043340730594       0.231451892986
107 1       4.183740000000       2.098550000000       8.262330000000      -0.335202541263      -0.127495381586      -0.103316403887
108 1       4.136210000000       6.328290000000      16.733790000000      -0.058376216860      -0.054715149746       0.326372068016
109 1       2.041610000000       8.388240000000      12.701800000000      -0.037773151852       0.265729376694      -0.113616611090
110 1       6.372600000000       8.266070000000      12.598310000000       0.059869815226       0.124099651755      -0.135157604786
111 1       2.116580000000       6.296750000000      14.581970000000       0.088161064509      -0.342682991205      -0.131222594009
112 1       6.149360000000       2.008510000000      10.465080000000      -0.002448229965       0.206820854193       0.230933548236
113 1       4.130600000000       4.263600000000      10.545340000000      -0.208947353463      -0.131919093919       0.110155197839
114 1       4.304740000000       4.164070000000      14.848730000000      -0.061272101267       0.203282520385       0.023652841358
115 1       0.031410000000       2.044050000000      16.754410000000      -0.024048296578       0.237462810910       0.084408360512
116 1       8.389090000000       6.338550000000       8.459260000000       0.255261700376      -0.248879328491       0.158377763021
117 1       0.042390000000       8.309630000000      14.754070000000       0.243443768485       0.124747825407      -0.097220468364
118 1       8.241360000000       8.298540000000      10.638760000000       0.157742877487       0.129115109882       0.033079064998
119 1       4.284660000000       6.399500000000      12.793970000000      -0.103988637179      -0.000139296853      -0.028154961882
120 1       4.178910000000       1.959200000000      12.696260000000      -0.214962098997      -0.015562546430      -0.032945764646
121 1       6.414330000000       1.975610000000      14.783230000000       0.195862541965       0.340622730469       0.078784934848
122 1       2.003600000000       6.242100000000      10.469640000000      -0.053189132847      -0.225557869338       0.027120969729
123 1       2.051130000000       4.025660000000      12.507620000000       0.091199095151       0.000278516951       0.011649906598
124 1       6.236620000000       4.228750000000      12.768650000000      -0.132148447629      -0.215353836354      -0.234531175342
125 1       6.151010000000       0.109280000000       8.568520000000      -0.110097978594       0.162410657021       0.123045863081
126 1       2.245540000000       0.055810000000      16.766700000000      -0.205557086295      -0.059438183126       0.111362080410
127 1       6.330270000000       6.356870000000      10.585740000000       0.108776370551      -0.102326272118       0.236510525635
128 1       2.108330000000       1.891690000000      14.671950000000      -0.275923717476       0.052420856132      -0.289553574323
129 1       2.288990000000       2.011470000000      19.085660000000      -0.060779472296      -0.088253882667       0.021989582784
130 1       6.375360000000       6.351320000000      23.086210000000      -0.216790083820      -0.047703936594       0.054543661274
131 1       4.352540000000       0.036670000000      23.135850000000       0.021464563740      -0.241975458467       0.034972776042
132 1       4.400910000000       0.068060000000      18.901310000000      -0.012505809391      -0.209163675377      -0.021410761069
133 1       0.112500000000       6.384680000000      21.105350000000      -0.018770159524       0.139004179819      -0.253857453942
134 1       0.113560000000       2.087340000000      21.137060000000       0.220612094272       0.057393832254       0.125476339874
135 1       6.434560000000       4.184410000000      25.193960000000      -0.110280373589      -0.068099290192      -0.051414572353
136 1       2.117730000000       4.065970000000      16.840940000000      -0.127106948685       0.051722652509       0.022115811079
137 1       0.054220000000       4.279460000000      18.828600000000       0.110894843066       0.168863307725      -0.120111949794
138 1       8.389080000000       4.169170000000      23.286460000000       0.124415919008       0.093001576270      -0.003458158891
139 1       4.368810000000       1.956820000000      16.931620000000       0.045039247278       0.196114192267       0.019087477128
140 1       4.176130000000       6.317700000000      25.191660000000      -0.167042981758       0.064452615503      -0.134413803820
141 1       2.107910000000       0.145120000000      21.065550000000       0.018604832096      -0.034433338881       0.012994227131
142 1       6.523530000000       0.014910000000      21.000670000000       0.040995527596      -0.318968085024      -0.174616139092
143 1       2.272230000000       6.338810000000      23.308530000000      -0.042633308204       0.095536747885      -0.068244818968
144 1       6.337990000000       2.009280000000      18.884020000000      -0.084462465666       0.070468333417      -0.073432089736
145 1       4.227620000000       4.144580000000      19.076370000000      -0.051590048234       0.189017518023      -0.346777610905
146 1       4.496210000000       4.497090000000      22.907000000000      -0.035306036935      -0.123983806287       0.001003709397
147 1       8.363730000000       2.256810000000      25.243560000000       0.128789509790       0.003440416774      -0.111646496662
148 1       0.019340000000       6.173490000000      16.948700000000       0.236770865907      -0.076630633314       0.045511427796
149 1       8.347490000000       0.161470000000      23.087040000000      -0.016586987861      -0.155850024040       0.114915353778
150 1       0.059380000000       8.395100000000      19.047630000000       0.000691635363      -0.307474059882      -0.094170555322
151 1       4.381650000000       6.392840000000      21.091450000000       0.083569736516      -0.274068105052       0.175467167819
152 1       4.274740000000       2.214700000000      20.971040000000      -0.249467753020       0.229197650566      -0.086178230267
153 1       6.449980000000       2.256530000000      23.229540000000      -0.024041343985       0.052342515814       0.125385208235
154 1       2.164490000000       6.356220000000      19.002330000000      -0.070341255640       0.105412068279       0.044081715858
155 1       2.235670000000       4.113990000000      21.166070000000      -0.020441890351       0.020547137494      -0.015447765733
156 1       6.418140000000       4.322060000000      21.089980000000      -0.291711870380       0.105765290173       0.105691717704
157 1       6.284440000000       0.006290000000      16.933600000000       0.089516746986       0.025418607459       0.089781983909
158 1       2.085720000000       0.016770000000       0.017440000000      -0.076827711709      -0.126183308315       0.003557921766
159 1       6.657320000000       6.516930000000      19.177620000000      -0.147289490020      -0.028710278260      -0.076216217270
160 1       2.069530000000       2.071240000000      23.087100000000       0.143239961448      -0.058669781828       0.166448061688
