80
Config_type=bulk_delta_phase Weight=1.0 Lattice="9.561519668 0.000000000 0.000000000 0.000000000 9.561519668 0.000000000 0.000000000 0.000000000 9.561519668" Energy=-679.30675260 Virial="-41.44018 0.00004 -0.00002 0.00004 -41.44020 -0.00001 -0.00002 -0.00001 -41.44017" pbc="T T T" Properties=species:S:1:pos:R:3:forces:R:3
Ga	      7.17114      2.39038      2.39038         0.000004      0.000005     -0.000006
Ga	      7.17114      4.42777      4.78076        -0.000004      0.002897     -0.000005
Ga	      0.00000      7.17114      0.35299        -0.000003     -0.000001     -0.002894
Ga	      0.00000      2.39038      4.42777         0.000009     -0.000004      0.002897
Ga	      0.35299      0.00000      7.17114        -0.002892      0.000012      0.000011
Ga	      0.35299      4.78076      2.39038        -0.002901     -0.000008      0.000007
Ga	      2.39038      4.42777      0.00000         0.000009      0.002889      0.000003
Ga	      2.39038      7.17114      2.39038         0.000003      0.000014      0.000007
Ga	      2.39038      2.39038      2.39038        -0.000010     -0.000001      0.000003
Ga	      2.39038      2.39038      7.17114        -0.000008     -0.000003      0.000002
Ga	      2.39038      0.35299      4.78076         0.000001     -0.002893     -0.000006
Ga	      4.42777      0.00000      2.39038         0.002893     -0.000013      0.000003
Ga	      4.42777      4.78076      7.17114         0.002886      0.000004     -0.000010
Ga	      4.78076      2.39038      0.35299        -0.000003     -0.000003     -0.002897
Ga	      4.78076      7.17114      4.42777         0.000003      0.000005      0.002906
Ga	      7.17114      0.35299      0.00000        -0.000005     -0.002889     -0.000000
Ga	      2.39038      7.17114      7.17114         0.000001     -0.000004      0.000007
Ga	      2.39038      9.20853      0.00000        -0.000005      0.002907     -0.000002
Ga	      4.78076      2.39038      5.13375        -0.000002      0.000008     -0.002891
Ga	      4.78076      7.17114      9.20853        -0.000006      0.000011      0.002895
Ga	      5.13375      4.78076      2.39038        -0.002895      0.000001      0.000009
Ga	      5.13375      0.00000      7.17114        -0.002888     -0.000004      0.000000
Ga	      7.17114      9.20853      4.78076        -0.000007      0.002890     -0.000008
Ga	      7.17114      2.39038      7.17114         0.000001     -0.000007      0.000005
Ga	      7.17114      7.17114      7.17114        -0.000003      0.000001     -0.000002
Ga	      7.17114      7.17114      2.39038        -0.000004      0.000003      0.000003
Ga	      7.17114      5.13375      0.00000         0.000005     -0.002899     -0.000003
Ga	      9.20853      4.78076      7.17114         0.002891      0.000006      0.000002
Ga	      9.20853      0.00000      2.39038         0.002901     -0.000005     -0.000006
Ga	      0.00000      7.17114      5.13375         0.000000     -0.000001     -0.002903
Ga	      0.00000      2.39038      9.20853         0.000008     -0.000002      0.002890
Ga	      2.39038      5.13375      4.78076         0.000008     -0.002902      0.000005
O	      8.48503      5.86453      1.51945         0.007014      0.000578      0.005197
O	      8.48503      3.69699      3.26131         0.007029     -0.000574     -0.005193
O	      8.47775      1.51945      1.07649        -0.000573      0.005172     -0.007023
O	      8.47775      3.26131      5.85725        -0.000575     -0.005197     -0.007027
O	      1.08377      3.26131      1.07649         0.000594     -0.005199     -0.007029
O	      1.08377      1.51945      5.85725         0.000586      0.005211     -0.007024
O	      1.07649      8.47775      1.51945        -0.007046     -0.000566      0.005223
O	      1.07649      1.08377      3.26131        -0.007042      0.000572     -0.005212
O	      1.51945      5.85725      1.08377         0.005207     -0.007032      0.000570
O	      1.51945      3.70427      3.69699         0.005197      0.007011     -0.000580
O	      1.51945      1.07649      8.47775         0.005201     -0.007009     -0.000597
O	      1.51945      8.48503      5.86453         0.005194      0.007013      0.000572
O	      3.26131      3.70427      5.86453        -0.005198      0.007018      0.000590
O	      3.26131      1.07649      1.08377        -0.005199     -0.007006      0.000579
O	      3.26131      8.48503      3.69699        -0.005209      0.007020     -0.000581
O	      3.26131      5.85725      8.47775        -0.005194     -0.007031     -0.000573
O	      3.70427      3.69699      1.51945         0.007036     -0.000575      0.005197
O	      3.70427      5.86453      3.26131         0.007039      0.000568     -0.005215
O	      3.69699      1.51945      3.70427        -0.000577      0.005211      0.007036
O	      3.69699      3.26131      8.48503        -0.000589     -0.005202      0.007027
O	      5.86453      1.51945      8.48503         0.000584      0.005202      0.007028
O	      5.86453      3.26131      3.70427         0.000567     -0.005184      0.007032
O	      5.85725      8.47775      3.26131        -0.007015     -0.000586     -0.005197
O	      5.85725      1.08377      1.51945        -0.007027      0.000578      0.005181
O	      3.70427      1.08377      6.30021         0.007024      0.000595      0.005201
O	      3.70427      8.47775      8.04207         0.007040     -0.000597     -0.005200
O	      3.69699      6.30021      5.85725        -0.000582      0.005200     -0.007015
O	      3.69699      8.04207      1.07649        -0.000566     -0.005221     -0.007030
O	      5.86453      8.04207      5.85725         0.000586     -0.005198     -0.007022
O	      5.86453      6.30021      1.07649         0.000572      0.005190     -0.007031
O	      5.85725      3.69699      6.30021        -0.007033     -0.000585      0.005196
O	      5.85725      5.86453      8.04207        -0.007030      0.000587     -0.005189
O	      6.30021      1.07649      5.86453         0.005201     -0.007021      0.000582
O	      6.30021      8.48503      8.47775         0.005200      0.007022     -0.000570
O	      6.30021      5.85725      3.69699         0.005201     -0.007041     -0.000589
O	      6.30021      3.70427      1.08377         0.005186      0.007049      0.000575
O	      8.04207      8.48503      1.08377        -0.005192      0.007042      0.000591
O	      8.04207      5.85725      5.86453        -0.005192     -0.007020      0.000573
O	      8.04207      3.70427      8.47775        -0.005204      0.007034     -0.000578
O	      8.04207      1.07649      3.69699        -0.005174     -0.007044     -0.000585
O	      8.48503      8.47775      6.30021         0.007029     -0.000592      0.005186
O	      8.48503      1.08377      8.04207         0.007014      0.000581     -0.005201
O	      8.47775      6.30021      8.48503        -0.000590      0.005193      0.007027
O	      8.47775      8.04207      3.70427        -0.000565     -0.005196      0.007025
O	      1.08377      6.30021      3.70427         0.000562      0.005216      0.007038
O	      1.08377      8.04207      8.48503         0.000578     -0.005208      0.007016
O	      1.07649      3.69699      8.04207        -0.007014     -0.000579     -0.005203
O	      1.07649      5.86453      6.30021        -0.007040      0.000586      0.005195
