ITEM: TIMESTEP
0
ITEM: NUMBER OF ATOMS
40
ITEM: BOX BOUNDS pp pp pp
0.0000000000000000e+00 8.6965056199999999e+00
0.0000000000000000e+00 5.0642482209999997e+00
0.0000000000000000e+00 9.3055165479999999e+00
ITEM: ATOMS id type c_pe_atom
1 2      -4.569329916059
2 2      -4.569313146257
3 2      -4.130968877975
4 2      -4.130961280645
5 2      -4.712277484577
6 2      -4.506715285051
7 2      -4.506716750354
8 2      -4.712290753342
9 2      -4.130787835013
10 2      -4.130795570480
11 2      -4.568475956013
12 2      -4.568482699685
13 2      -4.713133449245
14 2      -4.506856247342
15 2      -4.506855759897
16 2      -4.713141716272
17 1     -11.353888172972
18 1     -11.333759011242
19 1     -11.267893862502
20 1     -10.716022554131
21 1     -11.353890971095
22 1     -11.246475242486
23 1     -11.267892869833
24 1     -10.716032901319
25 1     -11.246410749853
26 1     -11.353669958136
27 1     -10.715198645708
28 1     -11.267827527160
29 1     -11.334297085665
30 1     -11.353684115699
31 1     -11.183019461711
32 1     -11.182893269612
33 1     -11.334286983194
34 1     -11.246474746924
35 1     -11.183012939331
36 1     -11.182892134984
37 1     -11.246412926513
38 1     -11.333787689221
39 1     -10.715188254670
40 1     -11.267826876985
