ITEM: TIMESTEP
0
ITEM: NUMBER OF ATOMS
40
ITEM: BOX BOUNDS pp pp pp
0.0000000000000000e+00 8.7845269320000003e+00
0.0000000000000000e+00 5.1155057939999997e+00
0.0000000000000000e+00 9.3997019389999998e+00
ITEM: ATOMS id type x y z fx fy fz
1 2       1.378240000000       1.583650000000       8.344990000000       0.090908869753       0.017365881391       0.053055173969
2 2       3.122880000000       4.141400000000       8.344990000000      -0.091073421159       0.017349905946       0.053121887446
3 2       5.785000000000       0.902860000000       7.507580000000      -0.040310843574       0.010357677737      -0.084261587537
4 2       7.500630000000       3.460620000000       7.507580000000       0.040351812326       0.010295554793      -0.084331748205
5 2       4.730810000000       3.464670000000       5.604450000000       0.134693041772      -0.122818308391       0.153481167548
6 2       1.474940000000       3.511490000000       5.729150000000       0.071697136208      -0.136003021673       0.204998662693
7 2       3.026160000000       0.953740000000       5.729150000000      -0.071664128285      -0.136020541952       0.204946140489
8 2       8.554830000000       0.906920000000       5.604450000000      -0.134691563579      -0.122800356320       0.153520390683
9 2       1.392650000000       1.654400000000       2.807480000000      -0.038526412792      -0.009281722792      -0.080880646879
10 2       3.108470000000       4.212150000000       2.807490000000       0.038442206568      -0.009242536243      -0.080980475920
11 2       5.769510000000       0.974920000000       3.645160000000       0.089033790222      -0.017207085135       0.056692311898
12 2       7.516120000000       3.532670000000       3.645160000000      -0.088857964402      -0.017177836987       0.056645007909
13 2       4.163620000000       1.651290000000       0.904880000000      -0.135526525708       0.126152542926       0.153362184830
14 2       5.867070000000       4.161800000000       1.029110000000       0.069189627844       0.136064630746       0.202040299135
15 2       7.418570000000       1.604050000000       1.029100000000      -0.069245687842       0.136123151741       0.202165308818
16 2       0.337490000000       4.209050000000       0.904880000000       0.135537692717       0.126073258830       0.153382633614
17 1       7.335490000000       1.780010000000       4.431180000000       0.042689183260      -0.042949117457       0.031456676333
18 1       0.039260000000       0.777830000000       0.043940000000       0.053621738868      -0.088020670449      -0.029012606297
19 1       7.367940000000       0.093530000000       6.946300000000      -0.012843089178       0.076542608039      -0.082414725069
20 1       7.294120000000       4.971830000000       2.132090000000       0.106884738741      -0.039833954028      -0.103814587798
21 1       5.950150000000       4.337760000000       4.431180000000      -0.042796120838      -0.042859779299       0.031453231570
22 1       7.446440000000       3.346630000000       9.382880000000      -0.015916286224      -0.073389511232      -0.121852398409
23 1       5.917690000000       2.651280000000       6.946310000000       0.012782213308       0.076586181699      -0.082488951763
24 1       5.991520000000       2.414080000000       2.132100000000      -0.106798196538      -0.039826725656      -0.103901839495
25 1       1.446420000000       1.768620000000       4.683150000000       0.015850056196       0.072965637690      -0.124365167969
26 1       2.944050000000       0.778500000000       9.131190000000       0.042755905778       0.042208353140       0.033340137110
27 1       1.600550000000       0.142550000000       6.833030000000      -0.103265651918       0.039424814174      -0.101373148224
28 1       1.525490000000       5.021480000000       2.246480000000       0.012351434615      -0.075657007490      -0.081795982291
29 1       0.070230000000       4.338390000000       4.743890000000      -0.056498303370       0.086699207740      -0.030215120103
30 1       1.557060000000       3.336250000000       9.131190000000      -0.042678586040       0.042357507282       0.033373854444
31 1       0.153420000000       2.434740000000       6.896940000000      -0.143982957034       0.037408483874      -0.025206363755
32 1       8.739550000000       2.680370000000       2.197350000000       0.143516030292      -0.040152242179      -0.023235580313
33 1       4.430880000000       1.780630000000       4.743890000000       0.056434113333       0.086804413328      -0.030127710397
34 1       5.839200000000       0.788880000000       9.382890000000       0.015864068636      -0.073412247858      -0.122048240243
35 1       4.347680000000       4.992490000000       6.896930000000       0.144069497801       0.037423540998      -0.025084724220
36 1       4.546090000000       0.122620000000       2.197350000000      -0.143535268325      -0.040177073286      -0.023209348460
37 1       3.054690000000       4.326370000000       4.683150000000      -0.015821131464       0.072931691298      -0.124277152971
38 1       4.461850000000       3.335580000000       0.043940000000      -0.053519785594      -0.087994077000      -0.028929971519
39 1       2.900550000000       2.700300000000       6.833040000000       0.103230234618       0.039400880447      -0.101436225990
40 1       2.975630000000       2.463730000000       2.246480000000      -0.012351468996      -0.075712108391      -0.081790764664
