ITEM: TIMESTEP
0
ITEM: NUMBER OF ATOMS
160
ITEM: BOX BOUNDS pp pp pp
0.0000000000000000e+00 8.4545245520000005e+00
0.0000000000000000e+00 8.4545245520000005e+00
0.0000000000000000e+00 2.5363573656000000e+01
ITEM: ATOMS id type c_pe_atom
1 2     -10.775775685855
2 2      -9.837019385138
3 2      -9.935725550820
4 2     -10.831696751047
5 2     -10.897397030288
6 2     -10.799046229989
7 2      -9.933743400813
8 2     -10.040596735891
9 2      -9.830466772615
10 2      -9.901882175151
11 2      -9.923141910522
12 2     -10.963870391082
13 2     -10.803544065744
14 2     -10.870210896055
15 2      -9.901986017830
16 2     -10.223791658644
17 2      -9.908631626902
18 2     -10.728961856736
19 2      -9.922539910928
20 2     -10.153822402753
21 2      -6.395394707298
22 2      -5.783005452336
23 2      -6.218323066593
24 2      -5.053743901215
25 2      -5.762320741008
26 2      -6.793692760862
27 2      -6.864940720749
28 2      -4.921516261123
29 2      -7.086560682232
30 2      -5.933146388091
31 2      -5.727885843237
32 2      -5.935302254461
33 2      -5.309840164111
34 2      -5.348801264272
35 2      -5.788966999532
36 2      -5.215402317070
37 2      -6.498098369654
38 2      -5.375611483070
39 2      -6.874996858924
40 2      -6.846794598676
41 2      -6.213648975616
42 2      -6.519557625503
43 2      -5.792843509815
44 2      -5.535939603217
45 2      -5.325180589412
46 2      -5.271267927500
47 2      -5.429887809223
48 2      -6.453283073882
49 2      -5.453124008336
50 2      -6.593714798031
51 2      -6.737678892980
52 2      -5.610473575931
53 2      -5.203059380980
54 2      -5.691280679456
55 2      -5.762264991370
56 2      -6.136455112272
57 2      -5.776328273376
58 2      -5.791776797720
59 2      -5.778694366637
60 2      -6.857727925562
61 2     -10.510104539978
62 2     -10.387517550596
63 2     -10.223136795262
64 2     -10.425725400400
65 1      -6.383119662723
66 1      -6.625278767640
67 1      -3.225059447597
68 1      -2.751467813315
69 1      -2.596534454663
70 1      -2.868518602048
71 1      -6.439001365821
72 1      -2.778785641538
73 1      -6.533985542373
74 1      -2.722223191422
75 1      -2.632833724890
76 1      -7.065009981214
77 1      -3.504853697576
78 1      -3.286901098561
79 1      -2.701167920989
80 1      -7.455464020230
81 1      -6.495804828028
82 1      -6.371601581840
83 1      -6.665679825458
84 1      -6.793169829832
85 1      -3.171452531611
86 1      -2.838925368002
87 1      -6.348791944422
88 1      -6.791491608703
89 1      -6.858464421044
90 1      -6.456955028961
91 1      -2.763784810183
92 1      -6.100741966009
93 1      -3.313536662501
94 1      -2.709950087820
95 1      -7.546678401330
96 1      -2.759596491864
97 1      -2.786810642275
98 1      -7.141566184543
99 1      -7.057540612553
100 1      -3.171161692339
101 1      -6.161846540304
102 1      -3.070065542397
103 1      -3.487015964932
104 1      -6.552949566026
105 1      -2.804466012704
106 1      -6.395477586247
107 1      -2.822667310816
108 1      -3.041152017693
109 1      -6.800405762244
110 1      -6.361137704365
111 1      -2.835959312837
112 1      -2.687513091880
113 1      -3.344557172317
114 1      -2.613047422986
115 1      -6.447188294344
116 1      -6.498448300217
117 1      -6.760835026021
118 1      -6.401818139715
119 1      -3.295531478356
120 1      -3.625627310476
121 1      -6.713159906645
122 1      -6.943998950609
123 1      -2.951535371065
124 1      -2.465140868180
125 1      -6.962601223705
126 1      -2.978320040654
127 1      -6.742012109678
128 1      -6.771370560034
129 1      -3.425842389936
130 1      -6.424766854718
131 1      -3.399550465396
132 1      -6.461897253470
133 1      -6.656267928581
134 1      -7.558709189330
135 1      -6.150014399831
136 1      -3.579075278455
137 1      -2.835903009965
138 1      -6.157979082846
139 1      -6.550850868840
140 1      -2.778183852302
141 1      -2.885915315153
142 1      -6.636557634638
143 1      -2.783168045378
144 1      -6.408123758881
145 1      -2.378768306891
146 1      -3.466537376424
147 1      -6.451869128798
148 1      -2.797767277405
149 1      -2.868775501557
150 1      -6.713190894295
151 1      -6.432639856706
152 1      -7.101735773854
153 1      -6.333635844989
154 1      -3.314805078887
155 1      -2.498569290310
156 1      -6.240158963979
157 1      -6.332527673990
158 1      -3.458897748320
159 1      -2.970294980329
160 1      -3.062753799921
