40
Config_type=bulk_kappa_phase Weight=1.0 Lattice="8.872548244 0.000000000 0.000000000 0.000000000 5.166763367 0.000000000 0.000000000 0.000000000 9.493887329" Energy=-340.42860980 Virial="-10.48279 -0.00024 -0.00221 -0.00024 -11.33447 0.01971 -0.00221 0.01971 -10.00579" pbc="T T T" Properties=species:S:1:pos:R:3:forces:R:3
Ga	      1.38826      1.60196      8.43518        -0.000454     -0.004103      0.000259
Ga	      3.15795      4.18533      8.43518        -0.000917     -0.002548     -0.001399
Ga	      5.84761      0.90930      7.58425        -0.009750     -0.018950     -0.004896
Ga	      7.57114      3.49268      7.58425         0.007944     -0.017242     -0.005227
Ga	      4.78120      3.50012      5.66078        -0.004717     -0.001356     -0.003667
Ga	      1.48996      3.54683      5.78626         0.008818      0.018712      0.000814
Ga	      3.05625      0.96345      5.78626        -0.009087      0.018945      0.001230
Ga	      8.63756      0.91673      5.66079         0.004365     -0.001089     -0.003291
Ga	      1.41120      1.67363      2.83744        -0.007955      0.019648     -0.004870
Ga	      3.13502      4.25701      2.83744         0.007655      0.018414     -0.004043
Ga	      5.82388      0.98250      3.68811        -0.002530      0.000273      0.001814
Ga	      7.59488      3.56588      3.68811         0.002744      0.000105      0.001198
Ga	      4.20209      1.66704      0.91430         0.003027      0.001635     -0.005608
Ga	      5.92614      4.20331      1.03898         0.007235     -0.018280     -0.000775
Ga	      7.49262      1.61993      1.03898        -0.006125     -0.019178     -0.001235
Ga	      0.34412      4.25042      0.91431        -0.002225      0.002497     -0.006257
O	      7.40811      1.79455      4.46938         0.007067     -0.010747     -0.007315
O	      0.04359      0.78602      0.05606         0.009629      0.000006      0.010992
O	      7.43623      0.08704      7.01515        -0.002991     -0.004993      0.005565
O	      7.35897      5.01024      2.14351         0.005472     -0.014051     -0.000556
O	      6.01064      4.37793      4.46938        -0.006558     -0.010560     -0.007718
O	      7.52427      3.37713      9.47447        -0.001916     -0.009433     -0.004694
O	      5.98252      2.67042      7.01515         0.003628     -0.004942      0.005742
O	      6.05979      2.42685      2.14352        -0.005846     -0.013727     -0.001186
O	      1.45774      1.78933      4.72775         0.001975      0.010051     -0.005650
O	      2.97246      0.78954      9.21660         0.006190      0.012005     -0.006351
O	      1.62474      0.15539      6.89134        -0.005332      0.015511     -0.001073
O	      1.54644      5.07937      2.26844         0.001467      0.004590      0.004968
O	      0.06680      4.38125      4.80321        -0.010962     -0.001852      0.008482
O	      1.57375      3.37292      9.21660        -0.006307      0.012028     -0.006390
O	      0.14894      2.45847      6.96544        -0.001938     -0.004631      0.007606
O	      8.83322      2.70788      2.21885         0.001180      0.003900      0.006453
O	      4.47941      1.79787      4.80321         0.011596     -0.001832      0.008316
O	      5.89449      0.79374      9.47447         0.001597     -0.009825     -0.005042
O	      4.39726      5.04184      6.96544         0.002359     -0.004275      0.007669
O	      4.58554      0.12450      2.21885        -0.000974      0.004407      0.006129
O	      3.08847      4.37271      4.72775        -0.002270      0.010277     -0.005187
O	      4.50262      3.36940      0.05606        -0.009132      0.000221      0.010966
O	      2.92146      2.73877      6.89135         0.005277      0.015352     -0.000672
O	      2.99978      2.49599      2.26843        -0.001239      0.005038      0.004900
