ITEM: TIMESTEP
0
ITEM: NUMBER OF ATOMS
80
ITEM: BOX BOUNDS pp pp pp
0.0000000000000000e+00 9.5991634460000004e+00
0.0000000000000000e+00 9.5991634460000004e+00
0.0000000000000000e+00 9.5991634460000004e+00
ITEM: ATOMS id type x y z fx fy fz
1 2       7.199370000000       2.399790000000       2.399790000000       0.000023568376       0.000005292559       0.000012686939
2 2       7.199370000000       4.441960000000       4.799580000000       0.000002530201       0.211141028554      -0.000000645556
3 2       0.000000000000       7.199370000000       0.357620000000      -0.000018804142       0.000005143535      -0.211115848245
4 2       0.000000000000       2.399790000000       4.441960000000      -0.000001112594       0.000006006377       0.211131108328
5 2       0.357620000000       0.000000000000       7.199370000000      -0.211115848245      -0.000018804142       0.000005143535
6 2       0.357620000000       4.799580000000       2.399790000000      -0.211128979109       0.000017045945       0.000008619846
7 2       2.399790000000       4.441960000000       0.000000000000       0.000006006377       0.211131108328      -0.000001112594
8 2       2.399790000000       7.199370000000       2.399790000000       0.000012686939       0.000023568376       0.000005292559
9 2       2.399790000000       2.399790000000       2.399790000000       0.000011673566       0.000011673566       0.000011673566
10 2       2.399790000000       2.399790000000       7.199370000000       0.000005292559       0.000012686939       0.000023568376
11 2       2.399790000000       0.357620000000       4.799580000000       0.000008619846      -0.211128979109       0.000017045945
12 2       4.441960000000       0.000000000000       2.399790000000       0.211131108328      -0.000001112594       0.000006006377
13 2       4.441960000000       4.799580000000       7.199370000000       0.211141028554      -0.000000645556       0.000002530201
14 2       4.799580000000       2.399790000000       0.357620000000       0.000017045945       0.000008619846      -0.211128979109
15 2       4.799580000000       7.199370000000       4.441960000000      -0.000000645556       0.000002530201       0.211141028554
16 2       7.199370000000       0.357620000000       0.000000000000       0.000005143535      -0.211115848245      -0.000018804142
17 2       2.399790000000       7.199370000000       7.199370000000       0.000012721568       0.000006502884       0.000007550880
18 2       2.399790000000       9.241540000000       0.000000000000       0.000000816664       0.211112864524      -0.000013136964
19 2       4.799580000000       2.399790000000       5.157200000000       0.000005021201      -0.000001796912      -0.211123026697
20 2       4.799580000000       7.199370000000       9.241540000000       0.000022712775       0.000012946943       0.211122784996
21 2       5.157200000000       4.799580000000       2.399790000000      -0.211123026697       0.000005021201      -0.000001796912
22 2       5.157200000000       0.000000000000       7.199370000000      -0.211109896130       0.000004553987       0.000010333741
23 2       7.199370000000       9.241540000000       4.799580000000       0.000012946943       0.211122784996       0.000022712775
24 2       7.199370000000       2.399790000000       7.199370000000       0.000007550880       0.000012721568       0.000006502884
25 2       7.199370000000       7.199370000000       7.199370000000       0.000016173959       0.000016173959       0.000016173959
26 2       7.199370000000       7.199370000000       2.399790000000       0.000006502884       0.000007550880       0.000012721568
27 2       7.199370000000       5.157200000000       0.000000000000       0.000010333741      -0.211109896130       0.000004553987
28 2       9.241540000000       4.799580000000       7.199370000000       0.211122784996       0.000022712775       0.000012946943
29 2       9.241540000000       0.000000000000       2.399790000000       0.211112864524      -0.000013136964       0.000000816664
30 2       0.000000000000       7.199370000000       5.157200000000       0.000004553987       0.000010333741      -0.211109896130
31 2       0.000000000000       2.399790000000       9.241540000000      -0.000013136964       0.000000816664       0.211112864524
32 2       2.399790000000       5.157200000000       4.799580000000      -0.000001796912      -0.211123026697       0.000005021201
33 1       8.524560000000       5.893610000000       1.528160000000       0.063065106436      -0.191809150914      -0.010951890683
34 1       8.524560000000       3.705550000000       3.271430000000       0.063065103863       0.191794017169       0.010864703421
35 1       8.505130000000       1.528160000000       1.074600000000       0.191809684603      -0.010942751288      -0.063010439783
36 1       8.505130000000       3.271430000000       5.874180000000       0.191806026361       0.010848352070      -0.062994745538
37 1       1.094030000000       3.271430000000       1.074600000000      -0.191798538793       0.010851051199      -0.063000589524
38 1       1.094030000000       1.528160000000       5.874180000000      -0.191815324326      -0.010931885782      -0.062999712058
39 1       1.074600000000       8.505130000000       1.528160000000      -0.063010439783       0.191809684603      -0.010942751288
40 1       1.074600000000       1.094030000000       3.271430000000      -0.063000589524      -0.191798538793       0.010851051199
41 1       1.528160000000       5.874180000000       1.094030000000      -0.010931885782      -0.062999712058      -0.191815324326
42 1       1.528160000000       3.724980000000       3.705550000000      -0.010945401812       0.063053064537       0.191810772940
43 1       1.528160000000       1.074600000000       8.505130000000      -0.010942751288      -0.063010439783       0.191809684603
44 1       1.528160000000       8.524560000000       5.893610000000      -0.010951890683       0.063065106436      -0.191809150914
45 1       3.271430000000       3.724980000000       5.893610000000       0.010857354620       0.063038250023      -0.191805462647
46 1       3.271430000000       1.074600000000       1.094030000000       0.010851051199      -0.063000589524      -0.191798538793
47 1       3.271430000000       8.524560000000       3.705550000000       0.010864703421       0.063065103863       0.191794017169
48 1       3.271430000000       5.874180000000       8.505130000000       0.010848352070      -0.062994745538       0.191806026361
49 1       3.724980000000       3.705550000000       1.528160000000       0.063053064537       0.191810772940      -0.010945401812
50 1       3.724980000000       5.893610000000       3.271430000000       0.063038250023      -0.191805462647       0.010857354620
51 1       3.705550000000       1.528160000000       3.724980000000       0.191810772940      -0.010945401812       0.063053064537
52 1       3.705550000000       3.271430000000       8.524560000000       0.191794017169       0.010864703421       0.063065103863
53 1       5.893610000000       1.528160000000       8.524560000000      -0.191809150914      -0.010951890683       0.063065106436
54 1       5.893610000000       3.271430000000       3.724980000000      -0.191805462647       0.010857354620       0.063038250023
55 1       5.874180000000       8.505130000000       3.271430000000      -0.062994745538       0.191806026361       0.010848352070
56 1       5.874180000000       1.094030000000       1.528160000000      -0.062999712058      -0.191815324326      -0.010931885782
57 1       3.724980000000       1.094030000000       6.327740000000       0.063043330791      -0.191822712436      -0.010930831137
58 1       3.724980000000       8.505130000000       8.071010000000       0.063038272101       0.191809551856       0.010879193840
59 1       3.705550000000       6.327740000000       5.874180000000       0.191808604052      -0.010924049100      -0.063007130203
60 1       3.705550000000       8.071010000000       1.074600000000       0.191787955750       0.010875110839      -0.063007915549
61 1       5.893610000000       8.071010000000       5.874180000000      -0.191799431336       0.010867898745      -0.062992223335
62 1       5.893610000000       6.327740000000       1.074600000000      -0.191806952248      -0.010930400927      -0.063008010194
63 1       5.874180000000       3.705550000000       6.327740000000      -0.063007130203       0.191808604052      -0.010924049100
64 1       5.874180000000       5.893610000000       8.071010000000      -0.062992223335      -0.191799431336       0.010867898745
65 1       6.327740000000       1.074600000000       5.893610000000      -0.010930400927      -0.063008010194      -0.191806952248
66 1       6.327740000000       8.524560000000       8.505130000000      -0.010941833680       0.063065220431       0.191817102600
67 1       6.327740000000       5.874180000000       3.705550000000      -0.010924049100      -0.063007130203       0.191808604052
68 1       6.327740000000       3.724980000000       1.094030000000      -0.010930831137       0.063043330791      -0.191822712436
69 1       8.071010000000       8.524560000000       1.094030000000       0.010882029669       0.063055277731      -0.191802094350
70 1       8.071010000000       5.874180000000       5.893610000000       0.010867898745      -0.062992223335      -0.191799431336
71 1       8.071010000000       3.724980000000       8.505130000000       0.010879193840       0.063038272101       0.191809551856
72 1       8.071010000000       1.074600000000       3.705550000000       0.010875110839      -0.063007915549       0.191787955750
73 1       8.524560000000       8.505130000000       6.327740000000       0.063065220431       0.191817102600      -0.010941833680
74 1       8.524560000000       1.094030000000       8.071010000000       0.063055277731      -0.191802094350       0.010882029669
75 1       8.505130000000       6.327740000000       8.524560000000       0.191817102600      -0.010941833680       0.063065220431
76 1       8.505130000000       8.071010000000       3.724980000000       0.191809551856       0.010879193840       0.063038272101
77 1       1.094030000000       6.327740000000       3.724980000000      -0.191822712436      -0.010930831137       0.063043330791
78 1       1.094030000000       8.071010000000       8.524560000000      -0.191802094350       0.010882029669       0.063055277731
79 1       1.074600000000       3.705550000000       8.071010000000      -0.063007915549       0.191787955750       0.010875110839
80 1       1.074600000000       5.893610000000       6.327740000000      -0.063008010194      -0.191806952248      -0.010930400927
