40
Config_type=bulk_kappa_phase Weight=1.0 Lattice="8.714109882 0.000000000 0.000000000 0.000000000 5.074499736 0.000000000 0.000000000 0.000000000 9.324353626" Energy=-340.28064980 Virial="14.13028 0.00015 -0.00226 0.00015 15.05245 0.01048 -0.00226 0.01048 13.74611" pbc="T T T" Properties=species:S:1:pos:R:3:forces:R:3
Ga	      1.36910      1.56779      8.27541         0.000196     -0.005532      0.013865
Ga	      3.09593      4.10503      8.27541         0.000208     -0.004836      0.013626
Ga	      5.73379      0.90122      7.44673         0.002823      0.028876     -0.015044
Ga	      7.44535      3.43847      7.44673        -0.005240      0.028584     -0.015297
Ga	      4.68731      3.43625      5.55983        -0.000020      0.006496      0.003782
Ga	      1.46357      3.48554      5.68446        -0.007762     -0.021902     -0.014352
Ga	      3.00145      0.94829      5.68446         0.006994     -0.019575     -0.015090
Ga	      8.49183      0.89900      5.55983        -0.001827      0.007571      0.004105
Ga	      1.37691      1.63585      2.78462         0.000214     -0.030470     -0.015141
Ga	      3.08812      4.17310      2.78462        -0.002868     -0.029857     -0.016825
Ga	      5.72563      0.96991      3.61318        -0.000291      0.006895      0.012333
Ga	      7.45351      3.50716      3.61318         0.002060      0.006421      0.012949
Ga	      4.13540      1.63855      0.89797         0.000422     -0.007091      0.005481
Ga	      5.82043      4.12614      1.02186        -0.004798      0.024017     -0.009339
Ga	      7.35871      1.58889      1.02186         0.004095      0.021953     -0.009969
Ga	      0.32963      4.17581      0.89797         0.001796     -0.007334      0.003397
O	      7.27819      1.76877      4.40157        -0.005698      0.006747      0.011825
O	      0.03043      0.76850      0.02821        -0.007104     -0.007958     -0.005998
O	      7.31327      0.10249      6.89046        -0.008080      0.005332      0.004894
O	      7.24582      4.94212      2.12408        -0.000823     -0.002775      0.006405
O	      5.90095      4.30602      4.40157         0.006230      0.006635      0.011247
O	      7.38272      3.32113      9.31042         0.003937      0.003076     -0.008359
O	      5.86586      2.63974      6.89046         0.008748      0.005240      0.005118
O	      5.93333      2.40487      2.12408         0.001335     -0.002058      0.006563
O	      1.43900      1.75329      4.64833        -0.001300     -0.003096     -0.006566
O	      2.92164      0.76899      9.06408        -0.007533     -0.008939      0.009704
O	      1.57717      0.13177      6.78684        -0.001023      0.001787      0.008344
O	      1.50871      4.97172      2.22850         0.008431     -0.003080      0.004788
O	      0.07782      4.30642      4.69054         0.009205      0.004798     -0.005401
O	      1.54339      3.30624      9.06408         0.008002     -0.008743      0.009214
O	      0.15872      2.41892      6.84132         0.001328      0.011769      0.001395
O	      8.66323      2.65516      2.17937        -0.002561     -0.009805     -0.000141
O	      4.38721      1.76917      4.69054        -0.008722      0.005427     -0.004769
O	      5.79642      0.78388      9.31042        -0.003381      0.003246     -0.008196
O	      4.30630      4.95617      6.84132        -0.001867      0.011197      0.001446
O	      4.51591      0.11791      2.17937         0.002258     -0.010211     -0.000506
O	      3.02603      4.29054      4.64833         0.002296     -0.002934     -0.006718
O	      4.43460      3.30575      0.02821         0.007302     -0.008096     -0.006462
O	      2.88784      2.66902      6.78684         0.000870      0.001469      0.008640
O	      2.95632      2.43447      2.22850        -0.007853     -0.003242      0.005053
