ITEM: TIMESTEP
0
ITEM: NUMBER OF ATOMS
30
ITEM: BOX BOUNDS xy xz yz pp pp pp
-2.5571763789999999e+00 5.1143527579999999e+00 -2.5571763789999999e+00
0.0000000000000000e+00 4.4291598350000001e+00 0.0000000000000000e+00
0.0000000000000000e+00 1.3768203757000000e+01 0.0000000000000000e+00
ITEM: ATOMS id type x y z fx fy fz
1 2       0.000000000000       0.000000000000       1.984540000000       0.000059019749       0.000030292592      -0.148138987619
2 2       0.000000000000       2.952770000000       0.310170000000       0.000043781775       0.000079407334       0.148011303308
3 2       2.557180000000       1.476390000000       2.604860000000      -0.000076561195      -0.000069783365       0.148066066530
4 2       0.000000000000       2.952770000000       4.279240000000       0.000017639694       0.000057540147      -0.148003055844
5 2       2.557180000000       1.476390000000       6.573940000000      -0.000073390520      -0.000076750717      -0.148046920535
6 2       0.000000000000       0.000000000000       4.899560000000       0.000011402263      -0.000026431096       0.148216232418
7 2       0.000000000000       2.952770000000       7.194270000000       0.000067729839       0.000080637527       0.147997414094
8 2       0.000000000000       0.000000000000       8.868640000000       0.000044713523       0.000028396248      -0.148129894859
9 2       0.000000000000       2.952770000000      11.163350000000      -0.000034408976       0.000059104590      -0.148149680675
10 2       2.557180000000       1.476390000000       9.488960000000      -0.000077579813      -0.000072254891       0.148075725798
11 2       0.000000000000       0.000000000000      11.783660000000      -0.000005977461      -0.000026827928       0.148159389634
12 2       2.557180000000       1.476390000000      13.458040000000      -0.000050778325      -0.000076594522      -0.148025015484
13 1       4.339510000000       1.342060000000       3.442050000000      -0.064511592095       0.111918481988       0.000039544077
14 1       1.549680000000       0.000000000000       3.442050000000       0.129207729382       0.000006394640       0.000020112158
15 1       1.782340000000       3.087100000000       3.442050000000      -0.064656473077      -0.111909013830       0.000050824610
16 1       3.332020000000       0.134320000000       1.147350000000       0.064563817806      -0.111783433605       0.000025857147
17 1       3.332020000000       2.818450000000       1.147350000000       0.064526833429       0.111851951194       0.000048659595
18 1       1.007500000000       1.476390000000       1.147350000000      -0.129174385900      -0.000100348794       0.000087355769
19 1       1.782340000000       2.818450000000       8.031450000000      -0.064597142186       0.111842792744       0.000036501590
20 1       4.106860000000       1.476390000000       8.031450000000       0.129133302718      -0.000103617865       0.000109086582
21 1       1.782340000000       0.134320000000       8.031450000000      -0.064641537453      -0.111770943357       0.000080889720
22 1       0.774840000000       1.610710000000       5.736760000000       0.064555626094      -0.111871169549      -0.000123991326
23 1       0.774840000000       4.294840000000       5.736760000000       0.064646018090       0.111757959293      -0.000139196603
24 1      -1.549680000000       2.952770000000       5.736760000000      -0.129146461414       0.000141036368      -0.000170348156
25 1      -0.774840000000       4.294840000000      12.620860000000      -0.064626408128       0.111776740718      -0.000085154194
26 1       1.549680000000       2.952770000000      12.620860000000       0.129175302459       0.000121984884      -0.000118350647
27 1      -0.774840000000       1.610710000000      12.620860000000      -0.064517587797      -0.111876188033      -0.000101182475
28 1       3.332010000000       3.087100000000      10.326150000000       0.064737988121      -0.111892302249       0.000107434883
29 1       0.774840000000       1.342060000000      10.326150000000       0.064576565201       0.111934776769       0.000037913082
30 1       3.564670000000       0.000000000000      10.326150000000      -0.129177185801      -0.000031837234       0.000061467421
