ITEM: TIMESTEP
0
ITEM: NUMBER OF ATOMS
30
ITEM: BOX BOUNDS xy xz yz pp pp pp
-2.4862843505000001e+00 4.9725687210000000e+00 -2.4862843505000001e+00
0.0000000000000000e+00 4.3063712450000002e+00 0.0000000000000000e+00
0.0000000000000000e+00 1.3386510979000001e+01 0.0000000000000000e+00
ITEM: ATOMS id type x y z fx fy fz
1 2       0.000000000000       0.000000000000       1.928820000000      -0.000012916256      -0.000012945649      -0.027283498294
2 2       0.000000007000       2.870910000000       0.302270000000       0.000012600982       0.000091789704       0.027242359226
3 2       2.486280003500       1.435460000000       2.533340000000       0.000085514473      -0.000066813125       0.027393477806
4 2       0.000000007000       2.870910000000       4.159910000000      -0.000035099325       0.000087105900      -0.027193455917
5 2       2.486280003500       1.435460000000       6.390990000000       0.000093041049      -0.000108284924      -0.027260020138
6 2       0.000000000000       0.000000000000       4.764430000000       0.000004457319      -0.000012997094       0.027421274957
7 2       0.000000007000       2.870910000000       6.995520000000       0.000036501405       0.000095663492       0.027259714434
8 2       0.000000000000       0.000000000000       8.622080000000       0.000021389555       0.000000901392      -0.027421206345
9 2       0.000000007000       2.870910000000      10.853170000000       0.000012191382       0.000090002432      -0.027376611432
10 2       2.486280003500       1.435460000000       9.226600000000       0.000101413856      -0.000064096834       0.027210183058
11 2       0.000000000000       0.000000000000      11.457690000000      -0.000018049602      -0.000012764692       0.027256902428
12 2       2.486280003500       1.435460000000      13.084240000000       0.000092847070      -0.000106994642      -0.027259195274
13 1      -0.753619996817       1.305310000000       3.346630000000      -0.034817644535       0.060130400892      -0.000091733038
14 1       1.507240000000       0.000000000000       3.346630000000       0.069488937638       0.000001327068      -0.000039020928
15 1       1.732660007317       3.001060000000       3.346630000000      -0.034677760215      -0.060154152436      -0.000075840002
16 1       3.239900000317       0.130150000000       1.115540000000       0.034863265350      -0.060211617939       0.000034578212
17 1       3.239910006683       2.740760000000       1.115540000000       0.034613692824       0.060304312897       0.000088733678
18 1       0.979050003500       1.435460000000       1.115540000000      -0.069565793972      -0.000104053081       0.000055175273
19 1       1.732670006683       2.740760000000       7.808790000000      -0.034746724180       0.060309218422       0.000137311990
20 1       3.993530003500       1.435460000000       7.808790000000       0.069471287858      -0.000150611814       0.000161990340
21 1       1.732670000317       0.130150000000       7.808790000000      -0.034871308850      -0.060194791244       0.000144251345
22 1       0.753620003817       1.565610000000       5.577720000000       0.034669036968      -0.060316169959      -0.000161253666
23 1       0.753620010183       4.176220000000       5.577720000000       0.034801291760       0.060218488884      -0.000108518030
24 1      -1.507239993000       2.870910000000       5.577720000000      -0.069526280139       0.000148539707      -0.000167886290
25 1      -0.753619989817       4.176220000000      12.270970000000      -0.034776736030       0.060209108233      -0.000026500357
26 1       1.507240007000       2.870910000000      12.270970000000       0.069482862265       0.000131090319      -0.000067036972
27 1      -0.753619996183       1.565610000000      12.270970000000      -0.034724723398      -0.060288292979      -0.000026639518
28 1      -1.732659992683       3.001060000000      10.039880000000       0.034715242374      -0.060141483575       0.000040402933
29 1       0.753620003183       1.305310000000      10.039880000000       0.034741900664       0.060160042908       0.000055963640
30 1       3.465330000000       0.000000000000      10.039880000000      -0.069534438289      -0.000031922264       0.000056096880
