ITEM: TIMESTEP
0
ITEM: NUMBER OF ATOMS
160
ITEM: BOX BOUNDS pp pp pp
0.0000000000000000e+00 8.3282925250000002e+00
0.0000000000000000e+00 8.3282925250000002e+00
0.0000000000000000e+00 2.4984877573999999e+01
ITEM: ATOMS id type x y z fx fy fz
1 2       1.208180000000       5.173070000000      21.967040000000      -0.034152702007       0.045963634664      -0.036395920858
2 2       5.171100000000       0.839870000000      13.600430000000      -0.199754130073      -0.024208443290      -0.028235963044
3 2       7.114870000000       7.363780000000       7.349930000000      -0.125537327233       0.133954803843      -0.045237008324
4 2       7.248430000000       7.092360000000      15.687780000000      -0.013436115218      -0.089434726391       0.074639773184
5 2       5.194750000000       5.225310000000       0.979010000000       0.061088368486       0.240675948792      -0.094146535596
6 2       3.013100000000       3.186830000000       7.173330000000      -0.019953261674      -0.177708282836      -0.004528877554
7 2       0.944780000000       1.044080000000       1.090660000000      -0.120558279398      -0.015583505281      -0.000076012789
8 2       5.141640000000       1.029460000000       5.213870000000       0.016848725159       0.081482966975       0.017306347528
9 2       3.165100000000       2.947120000000      15.562680000000      -0.098162329913       0.052766152170      -0.037620543570
10 2       5.354380000000       1.109600000000      21.795230000000      -0.093841268427       0.029299261226       0.047175158165
11 2       3.117290000000       7.208360000000      11.453660000000      -0.023058751232       0.008777074124      -0.021276340155
12 2       7.378940000000       3.178820000000      19.705030000000       0.158414874705      -0.145813012980      -0.083667887622
13 2       1.012750000000       5.067680000000      13.414460000000       0.069801705375       0.068759067145      -0.014737353267
14 2       7.288010000000       3.202920000000       3.187550000000      -0.060803191568      -0.272668206662       0.078894635958
15 2       5.071570000000       5.309850000000       9.317520000000      -0.133882481212       0.100437507742       0.043005333838
16 2       7.315740000000       7.397970000000      23.974300000000      -0.014168713055      -0.120811795463       0.028664380874
17 2       3.178980000000       7.410940000000      19.828120000000      -0.181443387062      -0.040830685663       0.048672758605
18 2       0.907200000000       1.072530000000       9.467270000000       0.151282044033       0.037801485791       0.014062284707
19 2       3.211180000000       7.384820000000       3.071790000000       0.081569405488       0.033406237901      -0.022168031369
20 2       1.169200000000       1.032020000000      17.726020000000      -0.070015677922       0.026626461825       0.045106016178
21 2       3.905190000000       0.191440000000       8.342030000000       0.197014692484      -0.172721261929       0.018668472882
22 2       6.107990000000       6.078370000000      12.468000000000       0.013471314722      -0.086671153329      -0.040419112438
23 2       2.150480000000       2.127530000000      20.836510000000       0.030009444448      -0.092034411792       0.006177911841
24 2       6.370790000000       6.259010000000      20.784690000000      -0.049606689315      -0.314259804798       0.068462681195
25 2       1.950510000000       6.360170000000       8.237370000000      -0.116868238574       0.062177234091      -0.030897031745
26 2       8.282310000000       2.050810000000       6.207430000000       0.214052210318       0.026710892867      -0.215633964186
27 2       1.982750000000       2.082600000000       4.201370000000      -0.142608896543       0.002164246869       0.155453694849
28 2       0.046090000000       2.001790000000      14.532280000000       0.075963660155       0.371716357336       0.088449296533
29 2       0.167040000000       6.170710000000      18.694760000000      -0.004067321160      -0.117074976338      -0.149761007175
30 2       6.238950000000       0.056440000000       2.091740000000      -0.011565905239      -0.016265597158      -0.030266354252
31 2       6.065900000000       0.075550000000      10.473620000000      -0.019987319463       0.025105231188       0.089718770185
32 2       4.156810000000       2.186650000000      18.690780000000       0.025466585578       0.002627562557      -0.164045948526
33 2       6.374670000000       8.285250000000      18.742820000000       0.147426460134       0.099932681914      -0.118405571054
34 2       6.319840000000       2.046020000000      16.641450000000      -0.058941833872      -0.020732284335       0.288692831970
35 2       0.159050000000       2.060230000000      22.956020000000       0.018880034733       0.084712613339       0.288275762345
36 2       2.021570000000       8.114150000000      14.669980000000      -0.140149750106      -0.020421978344      -0.036276530330
37 2       3.993180000000       5.993570000000      14.582650000000       0.186239383940       0.106182362952       0.023410426652
38 2       6.222060000000       4.185510000000       6.267520000000      -0.077886609239      -0.011122957526      -0.267324857923
39 2       4.184650000000       6.352310000000      22.942190000000      -0.071988524825       0.036326518384       0.214962184894
40 2       0.097230000000       4.165690000000      16.655780000000       0.123955099151       0.040718119160       0.208999000836
41 2       2.077600000000       4.217020000000       2.081050000000      -0.017960329220      -0.020309160748       0.007242705101
42 2       4.118570000000       4.279700000000      20.769320000000       0.036875430574       0.002912145238       0.067730923545
43 2       4.123800000000       8.134680000000      16.719480000000       0.041700296879      -0.040124922768       0.111594951550
44 2       6.263590000000       4.219080000000      22.861290000000       0.087786364899      -0.190888688017       0.104746367727
45 2       8.264160000000       6.169810000000      10.392060000000      -0.037784836130       0.085375971365       0.303277444327
46 2       8.311560000000       8.262340000000      12.515170000000      -0.002347169088      -0.139187232383      -0.384367905653
47 2       0.035400000000       4.251130000000       0.037160000000      -0.118004028918       0.049709217218      -0.181327122631
48 2       6.187470000000       4.040900000000      14.547170000000       0.082331358837       0.203038945790      -0.029152723079
49 2       4.110830000000       4.172560000000       4.133040000000       0.111773629490      -0.066290442679       0.222863043175
50 2       2.117500000000       2.023740000000      12.417390000000       0.027238776732       0.196881453469      -0.131698093073
51 2       2.083350000000       4.086570000000      10.423250000000       0.003056763351      -0.160410348060       0.153103121603
52 2       0.041530000000       6.392890000000       2.185550000000       0.204655064023       0.050249770172      -0.046496427607
53 2       0.202400000000       8.289000000000      20.922680000000       0.033381613989      -0.221304482653      -0.109291698283
54 2       4.101290000000       2.032350000000       1.972260000000      -0.265422090420      -0.034666306230       0.003407203731
55 2       6.168500000000       2.047830000000      24.938980000000       0.019583997597       0.002013046548      -0.282423121073
56 2       8.301420000000       4.120140000000       8.325730000000       0.070683276063      -0.105212098382      -0.019495581169
57 2       6.053780000000       2.156000000000       8.430300000000      -0.052407569773       0.135267037945      -0.027638305090
58 2       3.997140000000       6.387740000000       6.185960000000       0.001184107254      -0.012521306896      -0.110179239744
59 2       6.304050000000       6.383770000000       4.216400000000      -0.016361430187      -0.010422168060       0.248287559128
60 2       2.168300000000       6.348550000000      24.950870000000       0.132863849099       0.017174276877      -0.152922283309
61 2       5.139370000000       3.106540000000      11.494210000000      -0.082994049517      -0.087154654294       0.006091576411
62 2       3.155880000000       1.071420000000      23.923500000000       0.072367975435      -0.011624464896      -0.045324836585
63 2       3.157100000000       5.139340000000      17.692750000000      -0.069843214754       0.068275579973       0.002305845838
64 2       0.982500000000       7.352470000000       5.198610000000       0.000014801528       0.034031511741       0.018467431889
65 1       2.107610000000       2.136450000000       2.111280000000       0.224042570999      -0.047988960384      -0.139374185622
66 1       6.109800000000       6.199770000000       6.211200000000       0.100636273303      -0.083721919161      -0.104248741013
67 1       4.214470000000       8.271150000000       6.386160000000      -0.044809828690       0.159464775582       0.107295864739
68 1       4.282120000000       0.126180000000       2.057220000000       0.002095225107      -0.042386077389       0.052418425143
69 1       8.214870000000       6.304570000000       4.103530000000       0.066369656384      -0.021731221672       0.099900796204
70 1       0.025380000000       2.150220000000       4.243150000000       0.011818777231       0.032467418156       0.030122144741
71 1       6.170300000000       4.149680000000       8.298150000000       0.081904662753      -0.212328043154       0.018290332233
72 1       1.916320000000       4.402360000000       0.213010000000      -0.046762337801       0.167957996075      -0.001419794292
73 1       8.321520000000       4.325060000000       2.062080000000       0.078925274619       0.023692512882      -0.089152106357
74 1       8.094150000000       4.004860000000       6.459300000000      -0.084381787748      -0.141840940959       0.017421634193
75 1       4.255660000000       2.117330000000       0.049140000000      -0.074543950764       0.013207310819      -0.054553383800
76 1       3.993130000000       6.352430000000       8.198140000000       0.000005037881       0.080348058700      -0.141959581190
77 1       2.101050000000       0.083000000000       4.145220000000       0.017304337718       0.054371329743      -0.056155682371
78 1       6.122180000000       8.279470000000       4.068060000000      -0.022244838225       0.098943914841      -0.058932287221
79 1       2.083180000000       6.334740000000       6.311170000000      -0.096531845319      -0.004178355903      -0.086289491052
80 1       6.186410000000       2.115760000000       2.019380000000       0.068692547940       0.047713717930       0.048940697890
81 1       4.157290000000       4.101760000000       2.100520000000      -0.078306234696      -0.023688463314       0.070608507365
82 1       4.198590000000       4.305000000000       6.141270000000      -0.036399312356       0.008064665563      -0.069626195837
83 1       8.127740000000       2.090290000000       8.307810000000       0.018188954947       0.053784264317       0.060670761510
84 1       0.045060000000       6.267250000000       0.091170000000       0.050333389427      -0.069734730939      -0.087580246835
85 1       8.186230000000       0.067970000000       6.264420000000       0.001200890211      -0.023992932869       0.013113333963
86 1       8.195610000000       8.302630000000       2.103600000000      -0.000612351038       0.053187091649      -0.033086973330
87 1       4.216870000000       6.199480000000       4.202570000000      -0.141411828599       0.009135454218       0.203888916210
88 1       4.098670000000       2.156950000000       4.080930000000      -0.029030472482       0.082144125930       0.068133669269
89 1       6.216180000000       2.155950000000       6.318190000000      -0.027304660731       0.003483439153      -0.049837653785
90 1       2.042400000000       6.294640000000       2.050540000000      -0.156300358187       0.043622487241       0.148088623829
91 1       2.231780000000       4.029820000000       3.948100000000       0.061399736564      -0.167982080149       0.008613280727
92 1       6.123810000000       4.295360000000       4.245620000000      -0.020141412161       0.017608165908      -0.001522214413
93 1       6.334910000000       0.149290000000       0.111690000000       0.045421598803      -0.077064467223       0.067570077165
94 1       2.014610000000       8.281440000000       8.462840000000       0.020931145742       0.064435190815      -0.045574990857
95 1       6.287900000000       6.317040000000       2.146130000000      -0.071629150021      -0.052281877921      -0.025001073664
96 1       1.911370000000       2.135560000000       6.139020000000       0.043166145633       0.019346183411       0.054032238717
97 1       2.023010000000       2.133790000000      10.475510000000      -0.040260568830      -0.043961995519      -0.013021166602
98 1       6.164660000000       6.088650000000      14.502940000000      -0.102537909941       0.017674123741      -0.028099481387
99 1       4.083920000000       8.137260000000      14.712620000000       0.032594610384      -0.043050950186       0.193100571266
100 1       4.180600000000       8.173970000000      10.286340000000      -0.157887084414       0.041162661545      -0.101935345431
101 1       8.185000000000       6.250490000000      12.403450000000       0.047212361449       0.038112260048      -0.106841034325
102 1       0.160230000000       1.805570000000      12.666170000000       0.173057427252      -0.087475407220       0.051374635297
103 1       6.492350000000       3.906680000000      16.433850000000       0.092440359932      -0.119572347008       0.006565647840
104 1       2.012320000000       4.290510000000       8.343250000000      -0.030082337971      -0.011038639460      -0.072726324518
105 1       0.117130000000       4.300270000000      10.192830000000       0.201024182523       0.066409569320       0.009286299372
106 1       8.324410000000       3.996590000000      14.592240000000      -0.078273799251      -0.245394887777      -0.130934900801
107 1       4.130180000000       2.087690000000       8.193100000000      -0.065358078772      -0.039120248304       0.026663880787
108 1       4.125170000000       6.239450000000      16.540490000000      -0.048511465013      -0.108586324499      -0.033526695387
109 1       2.011000000000       8.282710000000      12.557560000000      -0.036702296127      -0.027750910811      -0.033289636359
110 1       6.293650000000       8.163160000000      12.451270000000       0.072524689313       0.160926389170      -0.134436362425
111 1       2.084120000000       6.208010000000      14.436190000000       0.034198105539      -0.052217320863       0.023975153115
112 1       6.110730000000       1.993880000000      10.349060000000       0.011618146445       0.094767751726       0.093809009936
113 1       4.078960000000       4.216960000000      10.416560000000      -0.077119878013       0.029691120748      -0.051154808651
114 1       4.251040000000       4.098960000000      14.635700000000      -0.079601184960      -0.046465863509      -0.005840024967
115 1       0.023830000000       2.022760000000      16.555650000000      -0.005680324090       0.053625081748      -0.036112167199
116 1       8.278250000000       6.250060000000       8.357750000000       0.203371796264      -0.106427834022      -0.007226509177
117 1       0.031140000000       8.220060000000      14.574890000000       0.266447145561       0.011927779929       0.009045264749
118 1       8.143660000000       8.196540000000      10.503810000000       0.001882463408       0.041757936353       0.052321073513
119 1       4.224810000000       6.299080000000      12.634130000000      -0.123651554772      -0.030570128530       0.049994377965
120 1       4.121330000000       1.933310000000      12.539800000000      -0.037326121195       0.005199265574       0.000496863669
121 1       6.334510000000       1.956310000000      14.605940000000       0.049622402406       0.038363343597       0.015195966306
122 1       1.973290000000       6.166530000000      10.338760000000       0.024970882818       0.006247728160       0.060259266935
123 1       2.055280000000       3.984350000000      12.367380000000      -0.030002983931      -0.010806425587       0.082568601091
124 1       6.199480000000       4.168410000000      12.604970000000       0.002705214413      -0.095099337922      -0.116904999845
125 1       6.066550000000       0.107370000000       8.463110000000      -0.054499584584      -0.032340249174       0.143283129212
126 1       2.211580000000       0.032260000000      16.577390000000      -0.112776507161       0.020837273030       0.047998044434
127 1       6.251920000000       6.288830000000      10.456940000000       0.107683137536      -0.081789690864       0.045489634435
128 1       2.073780000000       1.860140000000      14.493390000000      -0.056143543781      -0.001136856154       0.033814146743
129 1       2.255780000000       2.007340000000      18.854740000000      -0.081097885271      -0.038328416850       0.046958933176
130 1       6.297360000000       6.268570000000      22.812150000000      -0.026223801162       0.071851453972      -0.015048997042
131 1       4.300970000000       0.029220000000      22.862670000000       0.001715427869      -0.032217759569       0.038933251750
132 1       4.347100000000       0.074280000000      18.685010000000       0.007174530212      -0.113221095292      -0.179182697089
133 1       0.103950000000       6.301340000000      20.838820000000       0.089860253704       0.234602698311       0.014701097980
134 1       0.103690000000       2.062100000000      20.883060000000      -0.032390373446       0.046780725587      -0.013731171297
135 1       6.356280000000       4.135660000000      24.897030000000       0.043173086252      -0.006757012980       0.036560693354
136 1       2.090290000000       4.013540000000      16.635610000000      -0.045698073422      -0.035806964164       0.054185235074
137 1       0.081240000000       4.216560000000      18.611620000000      -0.041606800541       0.013897897327       0.045294744325
138 1       8.286720000000       4.125350000000      22.998220000000       0.015391999912       0.006001091593       0.081921678887
139 1       4.312070000000       1.922640000000      16.720100000000       0.048997215282       0.091588154151       0.135065064516
140 1       4.131710000000       6.273490000000      24.896560000000      -0.030678615661      -0.044261009621       0.029600939621
141 1       2.093090000000       0.145880000000      20.840060000000       0.040283400748       0.084300546018      -0.021128434418
142 1       6.447670000000       0.004920000000      20.750370000000       0.025801287111      -0.055704646541      -0.212017652045
143 1       2.231720000000       6.294560000000      23.012200000000      -0.091686711317      -0.003857163930      -0.138772575540
144 1       6.260950000000       1.983700000000      18.663240000000      -0.053836202792       0.022511550779      -0.016564367359
145 1       4.215750000000       4.100450000000      18.837410000000       0.010377580632       0.049440597448      -0.112901596040
146 1       4.409090000000       4.420670000000      22.661750000000       0.081951818139       0.125907771906       0.009567018536
147 1       8.259200000000       2.227220000000      24.945620000000       0.147876363550       0.000839417154      -0.154070574524
148 1       0.051440000000       6.109460000000      16.737510000000      -0.004106942050       0.094020390447      -0.033143329809
149 1       8.267590000000       0.152770000000      22.820300000000      -0.021208276062      -0.082280407411       0.069887363250
150 1       0.058930000000       8.290480000000      18.827630000000      -0.081492094941      -0.045627553492      -0.077654295955
151 1       4.334230000000       6.313020000000      20.844400000000       0.019513506880       0.013456159495      -0.104109103258
152 1       4.225540000000       2.187630000000      20.724220000000       0.097046915561      -0.035465858064      -0.011562553438
153 1       6.379300000000       2.224950000000      22.949560000000      -0.101035442338       0.150696279533       0.111070118962
154 1       2.140120000000       6.281420000000      18.775180000000       0.040907234485       0.046255869156      -0.018877155199
155 1       2.202840000000       4.079400000000      20.873630000000       0.048370377454       0.003891705645       0.011342098312
156 1       6.321450000000       4.262430000000      20.839910000000      -0.286643715053       0.246803999221       0.075557272824
157 1       6.211750000000       0.008920000000      16.726640000000      -0.017824142427      -0.033648234854       0.046791070214
158 1       2.055910000000       0.013930000000       0.019580000000      -0.032666393491      -0.061430366849       0.038488175128
159 1       6.555870000000       6.410320000000      18.917370000000       0.112436137757       0.067812808903       0.072424917428
160 1       2.053780000000       2.085200000000      22.816430000000       0.018936883219      -0.014781545216      -0.044049690347
