ITEM: TIMESTEP
0
ITEM: NUMBER OF ATOMS
160
ITEM: BOX BOUNDS pp pp pp
0.0000000000000000e+00 8.3025822369999993e+00
0.0000000000000000e+00 8.3025822369999993e+00
0.0000000000000000e+00 2.4907746711000001e+01
ITEM: ATOMS id type c_pe_atom
1 2      -4.424864890261
2 2      -4.243752573445
3 2      -4.239757670034
4 2      -4.381755090886
5 2      -4.367459373377
6 2      -4.438597437602
7 2      -4.293114502227
8 2      -4.262210306090
9 2      -4.277620685031
10 2      -4.236352817533
11 2      -4.242402139734
12 2      -4.371237095121
13 2      -4.421980727458
14 2      -4.360825527743
15 2      -4.240665082524
16 2      -4.267540040671
17 2      -4.309701909375
18 2      -4.429696570550
19 2      -4.296166406930
20 2      -4.267518381571
21 2      -4.840742307661
22 2      -4.738313083111
23 2      -4.928766710636
24 2      -4.599995942345
25 2      -4.744619106452
26 2      -5.048727067432
27 2      -5.022561706413
28 2      -4.569959194256
29 2      -5.010540561494
30 2      -4.862865996078
31 2      -4.745000233183
32 2      -4.731751319168
33 2      -4.686637278034
34 2      -4.641134148290
35 2      -4.699163688882
36 2      -4.653390278351
37 2      -4.897162020437
38 2      -4.657557883208
39 2      -5.007468375556
40 2      -5.026017192748
41 2      -4.728864476621
42 2      -4.837145073195
43 2      -4.762296129849
44 2      -4.683115404588
45 2      -4.648568077972
46 2      -4.633068013989
47 2      -4.700776532905
48 2      -4.863330929340
49 2      -4.699099355599
50 2      -5.029200156889
51 2      -5.047221408315
52 2      -4.700753736641
53 2      -4.637282515356
54 2      -4.702825475969
55 2      -4.690990477684
56 2      -4.701528679965
57 2      -4.749785914944
58 2      -4.737880666047
59 2      -4.688456735927
60 2      -5.018403479633
61 2      -4.605048119866
62 2      -4.561553655018
63 2      -4.579793890596
64 2      -4.582573189423
65 1     -11.140775350202
66 1     -11.186795069706
67 1     -11.082034661320
68 1     -11.116183809631
69 1     -11.104944843934
70 1     -10.988788330103
71 1     -11.117918299509
72 1     -10.717156920315
73 1     -11.071444920561
74 1     -10.703251292122
75 1     -11.073304891782
76 1     -11.044815715538
77 1     -11.284563327360
78 1     -11.075172223925
79 1     -11.078303341925
80 1     -11.037889493425
81 1     -11.067165981573
82 1     -11.145149991131
83 1     -11.058166107901
84 1     -11.098950214627
85 1     -11.304088786799
86 1     -11.127804958451
87 1     -11.160206955153
88 1     -11.093340957290
89 1     -11.082747090964
90 1     -11.138956897765
91 1     -10.710265709854
92 1     -11.157486594849
93 1     -11.072000071454
94 1     -11.123887572363
95 1     -11.033493919218
96 1     -10.987409727688
97 1     -10.986653821452
98 1     -10.978043615294
99 1     -11.054893038651
100 1     -11.060755589396
101 1     -11.144691710080
102 1     -10.701863596209
103 1     -10.666141942262
104 1     -11.079580357550
105 1     -10.710641054259
106 1     -11.092897445385
107 1     -11.113730844582
108 1     -11.030371614767
109 1     -11.104234117607
110 1     -11.193455977818
111 1     -11.134695741656
112 1     -11.072295334648
113 1     -11.291750748007
114 1     -11.136435805524
115 1     -11.116029856962
116 1     -11.106411997150
117 1     -11.122687856200
118 1     -11.137937271724
119 1     -11.091058353798
120 1     -11.298537663928
121 1     -11.100618015842
122 1     -11.093783488431
123 1     -10.990136165325
124 1     -11.081638566534
125 1     -11.047545405325
126 1     -11.146742040378
127 1     -11.179582688647
128 1     -11.139895247742
129 1     -11.082406158383
130 1     -11.109597641701
131 1     -11.283325062382
132 1     -11.168275088254
133 1     -11.131014029625
134 1     -11.034935188675
135 1     -11.150951339614
136 1     -11.257834899044
137 1     -10.991558193180
138 1     -11.129836285251
139 1     -11.179019703917
140 1     -11.004600878592
141 1     -11.113327008026
142 1     -11.125685640444
143 1     -11.020945365356
144 1     -11.145382883949
145 1     -11.085928339037
146 1     -10.665016494479
147 1     -11.155429261089
148 1     -11.007394673138
149 1     -11.172123344556
150 1     -11.093748556106
151 1     -11.124593161766
152 1     -11.045985984664
153 1     -11.187681355550
154 1     -11.287324031625
155 1     -11.027480481376
156 1     -11.059830559896
157 1     -11.146919463913
158 1     -11.284585563040
159 1     -10.708006245121
160 1     -11.013218518361
