40
Config_type=bulk_kappa_phase Weight=1.0 Lattice="8.960569556 0.000000000 0.000000000 0.000000000 5.218020940 0.000000000 0.000000000 0.000000000 9.588072719" Energy=-339.96836980 Virial="-22.44168 -0.00045 0.00048 -0.00045 -24.24793 0.01708 0.00048 0.01708 -21.42917" pbc="T T T" Properties=species:S:1:pos:R:3:forces:R:3
Ga	      1.39892      1.62127      8.52445        -0.002226      0.001895     -0.005401
Ga	      3.19239      4.23028      8.52445         0.001648      0.002038     -0.005671
Ga	      5.91054      0.90916      7.66118         0.001248     -0.023528     -0.008193
Ga	      7.64134      3.51817      7.66119        -0.000061     -0.024104     -0.009248
Ga	      4.83391      3.53628      5.71813        -0.001339     -0.009294      0.004428
Ga	      1.50602      3.58556      5.84101         0.000378      0.005406      0.005437
Ga	      3.08529      0.97655      5.84101        -0.000442      0.004828      0.006369
Ga	      8.71797      0.92727      5.71813         0.001657     -0.009562      0.002785
Ga	      1.43023      1.69974      2.86716         0.001016      0.022787     -0.008784
Ga	      3.16109      4.30874      2.86716         0.000143      0.023625     -0.009547
Ga	      5.87833      0.98829      3.73062        -0.002803     -0.000819     -0.006611
Ga	      7.67355      3.59730      3.73062         0.002016     -0.000352     -0.008208
Ga	      4.23827      1.68235      0.92435         0.004623      0.009609      0.003848
Ga	      5.98620      4.24151      1.04664         0.000504     -0.005125      0.004505
Ga	      7.56568      1.63250      1.04664         0.000250     -0.005625      0.004367
Ga	      0.35304      4.29136      0.92435        -0.003042      0.009528      0.005357
O	      7.48086      1.80613      4.50461         0.011557     -0.003496     -0.005094
O	      0.05374      0.79581      0.07520         0.004601     -0.001747      0.002156
O	      7.50285      0.07384      7.08486         0.003318     -0.015815      0.011314
O	      7.42160      5.04418      2.15132         0.010129     -0.009309      0.000197
O	      6.07102      4.41514      4.50461        -0.011292     -0.003083     -0.005572
O	      7.60446      3.40404      9.56480        -0.012942     -0.015143     -0.003553
O	      6.04902      2.68285      7.08486        -0.003776     -0.015595      0.011811
O	      6.13028      2.43517      2.15133        -0.009467     -0.009447      0.000384
O	      1.46675      1.81378      4.77094         0.012016      0.014874     -0.003887
O	      3.00122      0.80344      9.29891         0.010646      0.002704     -0.005168
O	      1.65166      0.17250      6.94640        -0.011892      0.010265      0.000260
O	      1.56878      5.14401      2.29103        -0.003991      0.016034      0.012457
O	      0.05773      4.42278      4.86957        -0.005380      0.000664      0.000882
O	      1.59009      3.41245      9.29891        -0.011386      0.002513     -0.005083
O	      0.14288      2.47623      7.03622         0.004076      0.002298      0.001300
O	      8.92835      2.74131      2.24247        -0.004327     -0.002237      0.001200
O	      4.53358      1.81377      4.86958         0.004869      0.000560      0.001302
O	      5.94742      0.79503      9.56480         0.011943     -0.015515     -0.004990
O	      4.44843      5.08524      7.03622        -0.003959      0.002507      0.001078
O	      4.62353      0.13230      2.24247         0.004404     -0.001824      0.001262
O	      3.12456      4.42279      4.77095        -0.013161      0.014925     -0.003418
O	      4.53757      3.40482      0.07521        -0.004321     -0.001907      0.002354
O	      2.93964      2.78151      6.94641         0.011640      0.010120      0.000760
O	      3.02254      2.53500      2.29103         0.003125      0.016345      0.012617
