ITEM: TIMESTEP
0
ITEM: NUMBER OF ATOMS
160
ITEM: BOX BOUNDS xy xz yz pp pp pp
-2.7801262623470002e+00 1.2452446319501000e+01 0.0000000000000000e+00
0.0000000000000000e+00 1.2331872000000001e+01 -2.7801262623470002e+00
0.0000000000000000e+00 1.1418740792761000e+01 0.0000000000000000e+00
ITEM: ATOMS id type c_pe_atom
1 2      -5.645384918336
2 2      -5.645356852806
3 2      -8.921383730895
4 2      -8.921426764508
5 2      -5.645342356247
6 2      -5.645382751149
7 2      -8.921390065339
8 2      -8.921373977185
9 2      -5.645449780777
10 2      -5.645402401747
11 2      -8.921390017997
12 2      -8.921462346875
13 2      -5.645343451016
14 2      -5.645317417897
15 2      -8.921397926823
16 2      -8.921357481687
17 2      -5.645395497967
18 2      -5.645415925066
19 2      -8.921424592611
20 2      -8.921435262984
21 2      -5.645401428742
22 2      -5.645393330995
23 2      -8.921398563996
24 2      -8.921414839119
25 2      -5.645460360358
26 2      -5.645461474330
27 2      -8.921430879688
28 2      -8.921470845288
29 2      -5.645402523423
30 2      -5.645327997788
31 2      -8.921406425371
32 2      -8.921398343547
33 2      -5.645318400315
34 2      -5.645402894938
35 2      -8.921414128434
36 2      -8.921381570050
37 2      -5.645388398335
38 2      -5.645316233115
39 2      -8.921344871026
40 2      -8.921404374852
41 2      -5.645383262462
42 2      -5.645448444175
43 2      -8.921420415545
44 2      -8.921417152717
45 2      -5.645389493012
46 2      -5.645250900158
47 2      -8.921352732341
48 2      -8.921387879317
49 2      -5.645400604280
50 2      -5.645405678565
51 2      -8.921416366517
52 2      -8.921437721113
53 2      -5.645391182016
54 2      -5.645398437136
55 2      -8.921401021951
56 2      -8.921406612953
57 2      -5.645465466767
58 2      -5.645451227806
59 2      -8.921422653621
60 2      -8.921473303407
61 2      -5.645392276693
62 2      -5.645333103836
63 2      -8.921408883447
64 2      -8.921390117411
65 1      -3.965966423176
66 1      -3.965974115590
67 1      -7.374499698930
68 1      -7.374444188801
69 1      -3.940826001222
70 1      -3.940882997866
71 1      -3.966004469180
72 1      -3.966012957389
73 1      -7.374400316718
74 1      -7.374502750711
75 1      -3.940873864156
76 1      -3.940864904747
77 1      -3.965931212880
78 1      -3.966013407374
79 1      -7.374399706292
80 1      -7.374360591448
81 1      -3.940878467363
82 1      -3.940800814992
83 1      -3.965996646307
84 1      -3.965945893163
85 1      -7.374428482909
86 1      -7.374501488601
87 1      -3.940881407458
88 1      -3.940940997517
89 1      -3.965984416640
90 1      -3.965952921486
91 1      -7.374447179526
92 1      -7.374433890519
93 1      -3.940808226327
94 1      -3.940890453039
95 1      -3.965983275053
96 1      -3.966030950828
97 1      -7.374390018249
98 1      -7.374450230329
99 1      -3.940881319291
100 1      -3.940847129742
101 1      -3.965949206459
102 1      -3.965992213221
103 1      -7.374347186076
104 1      -7.374350293142
105 1      -3.940860692598
106 1      -3.940808270328
107 1      -3.965975452188
108 1      -3.965963886747
109 1      -7.374418184451
110 1      -7.374448969343
111 1      -3.940888862584
112 1      -3.940923222765
113 1      -3.966011015429
114 1      -3.965937078980
115 1      -7.374460113634
116 1      -7.374502773102
117 1      -3.940804483134
118 1      -3.940912757804
119 1      -3.965967432814
120 1      -3.966057549652
121 1      -7.374458901965
122 1      -7.374463164421
123 1      -3.940903624357
124 1      -3.940843386696
125 1      -3.965975805213
126 1      -3.965976371110
127 1      -7.374360120223
128 1      -7.374419175078
129 1      -3.940856951395
130 1      -3.940830575371
131 1      -3.965959609953
132 1      -3.965990485541
133 1      -7.374487066767
134 1      -7.374461903633
135 1      -3.940911167676
136 1      -3.940919481727
137 1      -3.966005792706
138 1      -3.965977429834
139 1      -7.374457582814
140 1      -7.374430496153
141 1      -3.940826868327
142 1      -3.940908375769
143 1      -3.966007783371
144 1      -3.966052326922
145 1      -7.374386623840
146 1      -7.374460633602
147 1      -3.940899242262
148 1      -3.940865771823
149 1      -3.965970582497
150 1      -3.966016721540
151 1      -7.374357589394
152 1      -7.374346898929
153 1      -3.940879334068
154 1      -3.940826193281
155 1      -3.965999960497
156 1      -3.965985262817
157 1      -7.374414790313
158 1      -7.374459372776
159 1      -3.940906785576
160 1      -3.940941864189
