ITEM: TIMESTEP
0
ITEM: NUMBER OF ATOMS
40
ITEM: BOX BOUNDS pp pp pp
0.0000000000000000e+00 8.9605695559999994e+00
0.0000000000000000e+00 5.2180209399999997e+00
0.0000000000000000e+00 9.5880727189999995e+00
ITEM: ATOMS id type x y z fx fy fz
1 2       1.398920000000       1.621270000000       8.524450000000       0.106291735881      -0.060797921752       0.022237372255
2 2       3.192390000000       4.230280000000       8.524450000000      -0.106255538201      -0.060806962026       0.022287434342
3 2       5.910540000000       0.909160000000       7.661180000000      -0.049681368424      -0.058020639149      -0.042114817667
4 2       7.641340000000       3.518170000000       7.661190000000       0.049598640869      -0.058027818748      -0.042290816984
5 2       4.833910000000       3.536280000000       5.718130000000       0.157160879295      -0.099847254310      -0.022698123862
6 2       1.506020000000       3.585560000000       5.841010000000       0.084218189623      -0.019959211950       0.291198648317
7 2       3.085290000000       0.976550000000       5.841010000000      -0.084298184309      -0.019987127095       0.291233404619
8 2       8.717970000000       0.927270000000       5.718130000000      -0.157098018642      -0.099901853404      -0.022736892641
9 2       1.430230000000       1.699740000000       2.867160000000      -0.049378306744       0.056976084054      -0.042595115548
10 2       3.161090000000       4.308740000000       2.867160000000       0.049295668093       0.057186940705      -0.042497035315
11 2       5.878330000000       0.988290000000       3.730620000000       0.106721219632       0.061786052044       0.021055432079
12 2       7.673550000000       3.597300000000       3.730620000000      -0.106733368767       0.061775472140       0.021023912392
13 2       4.238270000000       1.682350000000       0.924350000000      -0.151597272410       0.100957557234      -0.020472668617
14 2       5.986200000000       4.241510000000       1.046640000000       0.084744654275       0.019653041174       0.291382921297
15 2       7.565680000000       1.632500000000       1.046640000000      -0.084753151421       0.019622130874       0.291388123256
16 2       0.353040000000       4.291360000000       0.924350000000       0.151605025922       0.101029747863      -0.020461311182
17 1       7.480860000000       1.806130000000       4.504610000000       0.030451640600      -0.007570140225      -0.002170882193
18 1       0.053740000000       0.795810000000       0.075200000000       0.120593540038      -0.073656230886       0.001334936071
19 1       7.502850000000       0.073840000000       7.084860000000       0.024416868812       0.094076874742      -0.088436153468
20 1       7.421600000000       5.044180000000       2.151320000000       0.050835192721      -0.132323321604      -0.089970414708
21 1       6.071020000000       4.415140000000       4.504610000000      -0.030468191595      -0.007544283543      -0.002191416036
22 1       7.604460000000       3.404040000000       9.564800000000       0.029273711784       0.051683326238      -0.111460332526
23 1       6.049020000000       2.682850000000       7.084860000000      -0.024291511076       0.094184657028      -0.088405457332
24 1       6.130280000000       2.435170000000       2.151330000000      -0.050779207703      -0.132315639575      -0.090040036873
25 1       1.466750000000       1.813780000000       4.770940000000      -0.028936475375      -0.052162581191      -0.111043294290
26 1       3.001220000000       0.803440000000       9.298910000000       0.029730106850       0.006464592645      -0.002609348301
27 1       1.651660000000       0.172500000000       6.946400000000      -0.051194424342       0.133661103540      -0.086214885873
28 1       1.568780000000       5.144010000000       2.291030000000      -0.024197321266      -0.093202942112      -0.087647208956
29 1       0.057730000000       4.422780000000       4.869570000000      -0.121100126424       0.072581373799       0.000714222628
30 1       1.590090000000       3.412450000000       9.298910000000      -0.029735880093       0.006488936166      -0.002583057902
31 1       0.142880000000       2.476230000000       7.036220000000      -0.056229587480       0.047191356236       0.039632145990
32 1       8.928350000000       2.741310000000       2.242470000000       0.056473527014      -0.047566953271       0.040137418091
33 1       4.533580000000       1.813770000000       4.869580000000       0.121136269449       0.072538013574       0.000607312835
34 1       5.947420000000       0.795030000000       9.564800000000      -0.029289621997       0.051707382292      -0.111526136310
35 1       4.448430000000       5.085240000000       7.036220000000       0.056173661845       0.047168101036       0.039643867325
36 1       4.623530000000       0.132300000000       2.242470000000      -0.056448590344      -0.047562253003       0.040170182908
37 1       3.124560000000       4.422790000000       4.770950000000       0.028975883273      -0.052199111199      -0.111211858273
38 1       4.537570000000       3.404820000000       0.075210000000      -0.120640444322      -0.073605582320       0.001234901872
39 1       2.939640000000       2.781510000000       6.946410000000       0.051207699883       0.133605095517      -0.086233476918
40 1       3.022540000000       2.535000000000       2.291030000000       0.024202475078      -0.093280011539      -0.087671494502
