ITEM: TIMESTEP
0
ITEM: NUMBER OF ATOMS
40
ITEM: BOX BOUNDS pp pp pp
0.0000000000000000e+00 8.8901525059999997e+00
0.0000000000000000e+00 5.1770148819999999e+00
0.0000000000000000e+00 9.5127244070000003e+00
ITEM: ATOMS id type c_pe_atom
1 2      -4.928669679294
2 2      -4.928652292666
3 2      -4.586448954979
4 2      -4.586447876761
5 2      -5.033710776685
6 2      -4.897190662164
7 2      -4.897196337962
8 2      -5.033715211294
9 2      -4.586173146522
10 2      -4.586170005736
11 2      -4.927078106291
12 2      -4.927076422165
13 2      -5.034806192788
14 2      -4.897416540217
15 2      -4.897423201403
16 2      -5.034813244775
17 1     -11.076458203299
18 1     -11.085281470113
19 1     -11.016857119582
20 1     -10.492346337396
21 1     -11.076465238124
22 1     -10.994479539226
23 1     -11.016850643173
24 1     -10.492351747645
25 1     -10.994493924574
26 1     -11.076526501722
27 1     -10.490730461076
28 1     -11.016943149748
29 1     -11.086810352782
30 1     -11.076520881588
31 1     -10.965820203698
32 1     -10.965257193898
33 1     -11.086804729874
34 1     -10.994485511115
35 1     -10.965824037121
36 1     -10.965275226311
37 1     -10.994494518172
38 1     -11.085301154712
39 1     -10.490716473161
40 1     -11.016950988922
