40
Config_type=bulk_kappa_phase Weight=1.0 Lattice="8.802131194 0.000000000 0.000000000 0.000000000 5.125757309 0.000000000 0.000000000 0.000000000 9.418539017" Energy=-340.52828180 Virial="0.08598 -0.00103 -0.00273 -0.00103 0.00414 0.02555 -0.00273 0.02555 0.04998" pbc="T T T" Properties=species:S:1:pos:R:3:forces:R:3
Ga	      1.38086      1.58661      8.36186        -0.001945      0.001746      0.020683
Ga	      3.12927      4.14949      8.36187         0.002499      0.000580      0.021553
Ga	      5.79702      0.90464      7.52228        -0.004110     -0.000426      0.001852
Ga	      7.51524      3.46752      7.52229         0.003818      0.000952      0.002556
Ga	      4.74023      3.47155      5.61548         0.008668     -0.000227     -0.006075
Ga	      1.47819      3.51879      5.74037        -0.008777      0.007155     -0.007632
Ga	      3.03193      0.95591      5.74037         0.009933      0.007220     -0.007988
Ga	      8.57203      0.90867      5.61548        -0.007868     -0.001996     -0.004812
Ga	      1.39588      1.65775      2.81278        -0.005934      0.002800      0.004325
Ga	      3.11426      4.22062      2.81278         0.005710      0.002067      0.004296
Ga	      5.78075      0.97713      3.65274         0.003788     -0.003339      0.017965
Ga	      7.53151      3.54001      3.65274        -0.004499     -0.002736      0.018374
Ga	      4.17189      1.65466      0.90634        -0.006239      0.000452     -0.002919
Ga	      5.87899      4.16984      1.03080        -0.004142     -0.007012     -0.004153
Ga	      7.43327      1.60696      1.03080         0.005134     -0.007091     -0.005314
Ga	      0.33824      4.21754      0.90635         0.005895      0.001211     -0.004812
O	      7.34973      1.78364      4.43989         0.005826     -0.003558     -0.001466
O	      0.03936      0.77929      0.04485        -0.002341      0.001703      0.002263
O	      7.38209      0.09290      6.96074        -0.002130      0.010348     -0.004536
O	      7.30812      4.98162      2.13597        -0.004354     -0.008741     -0.005120
O	      5.96253      4.34652      4.43989        -0.005747     -0.003475     -0.001158
O	      7.46137      3.35352      9.40181        -0.000716     -0.006117     -0.006726
O	      5.93017      2.65579      6.96074         0.002142      0.010294     -0.003640
O	      6.00415      2.41874      2.13597         0.004600     -0.008661     -0.004416
O	      1.44925      1.77197      4.69264         0.001656      0.007185     -0.006053
O	      2.94962      0.77998      9.14927         0.002949      0.003330     -0.001681
O	      1.60440      0.14301      6.84631         0.003936      0.008726     -0.003474
O	      1.52915      5.03232      2.25144         0.003872     -0.009213     -0.002491
O	      0.07017      4.34719      4.75409         0.008109     -0.002886      0.006653
O	      1.56051      3.34286      9.14927        -0.002345      0.003625     -0.001291
O	      0.15344      2.43967      6.91075        -0.002383      0.001675     -0.002037
O	      8.75719      2.68573      2.20169         0.007183     -0.004195     -0.000557
O	      4.43996      1.78431      4.75409        -0.008383     -0.002056      0.007146
O	      5.85089      0.79064      9.40181        -0.000053     -0.006247     -0.006411
O	      4.35669      5.00254      6.91074         0.001754      0.001986     -0.001947
O	      4.55508      0.12285      2.20169        -0.007557     -0.004342     -0.000167
O	      3.06088      4.33484      4.69264        -0.002468      0.007077     -0.005771
O	      4.47077      3.34216      0.04485         0.001714      0.002363      0.001635
O	      2.90572      2.70589      6.84632        -0.004223      0.009256     -0.004002
O	      2.98098      2.46945      2.25144        -0.002968     -0.009435     -0.002651
