ITEM: TIMESTEP
0
ITEM: NUMBER OF ATOMS
80
ITEM: BOX BOUNDS pp pp pp
0.0000000000000000e+00 9.4862321109999996e+00
0.0000000000000000e+00 9.4862321109999996e+00
0.0000000000000000e+00 9.4862321109999996e+00
ITEM: ATOMS id type x y z fx fy fz
1 2       7.114670000000       2.371560000000       2.371560000000       0.000038504728      -0.000023379119      -0.000015010535
2 2       7.114670000000       4.401240000000       4.743120000000       0.000048271434       0.118455714149      -0.000070949634
3 2       0.000000000000       7.114670000000       0.341870000000       0.000086483746       0.000085365446      -0.118453280261
4 2       0.000000000000       2.371560000000       4.401240000000       0.000062675527      -0.000023692864       0.118426061140
5 2       0.341870000000       0.000000000000       7.114670000000      -0.118453280261       0.000086483746       0.000085365446
6 2       0.341870000000       4.743120000000       2.371560000000      -0.118413438610      -0.000094756453       0.000013400412
7 2       2.371560000000       4.401240000000       0.000000000000      -0.000023692864       0.118426061140       0.000062675527
8 2       2.371560000000       7.114670000000       2.371560000000      -0.000015010535       0.000038504728      -0.000023379119
9 2       2.371560000000       2.371560000000       2.371560000000      -0.000003501664      -0.000003501664      -0.000003501664
10 2       2.371560000000       2.371560000000       7.114670000000      -0.000023379119      -0.000015010535       0.000038504728
11 2       2.371560000000       0.341870000000       4.743120000000       0.000013400412      -0.118413438610      -0.000094756453
12 2       4.401240000000       0.000000000000       2.371560000000       0.118426061140       0.000062675527      -0.000023692864
13 2       4.401240000000       4.743120000000       7.114670000000       0.118455714149      -0.000070949634       0.000048271434
14 2       4.743120000000       2.371560000000       0.341870000000      -0.000094756453       0.000013400412      -0.118413438610
15 2       4.743120000000       7.114670000000       4.401240000000      -0.000070949634       0.000048271434       0.118455714149
16 2       7.114670000000       0.341870000000       0.000000000000       0.000085365446      -0.118453280261       0.000086483746
17 2       2.371560000000       7.114670000000       7.114670000000      -0.000012670618       0.000063915715       0.000054745470
18 2       2.371560000000       9.144360000000       0.000000000000      -0.000005487004       0.118501163292       0.000045543812
19 2       4.743120000000       2.371560000000       5.084990000000      -0.000111887908      -0.000042579721      -0.118519844366
20 2       4.743120000000       7.114670000000       9.144360000000      -0.000135695085       0.000104251607       0.118530815383
21 2       5.084990000000       4.743120000000       2.371560000000      -0.118519844366      -0.000111887908      -0.000042579721
22 2       5.084990000000       0.000000000000       7.114670000000      -0.118559687783       0.000021736469       0.000067159446
23 2       7.114670000000       9.144360000000       4.743120000000       0.000104251607       0.118530815383      -0.000135695085
24 2       7.114670000000       2.371560000000       7.114670000000       0.000054745470      -0.000012670618       0.000063915715
25 2       7.114670000000       7.114670000000       7.114670000000       0.000030136463       0.000030136463       0.000030136463
26 2       7.114670000000       7.114670000000       2.371560000000       0.000063915715       0.000054745470      -0.000012670618
27 2       7.114670000000       5.084990000000       0.000000000000       0.000067159446      -0.118559687783       0.000021736469
28 2       9.144360000000       4.743120000000       7.114670000000       0.118530815383      -0.000135695085       0.000104251607
29 2       9.144360000000       0.000000000000       2.371560000000       0.118501163292       0.000045543812      -0.000005487004
30 2       0.000000000000       7.114670000000       5.084990000000       0.000021736469       0.000067159446      -0.118559687783
31 2       0.000000000000       2.371560000000       9.144360000000       0.000045543812      -0.000005487004       0.118501163292
32 2       2.371560000000       5.084990000000       4.743120000000      -0.000042579721      -0.118519844366      -0.000111887908
33 1       8.406740000000       5.807100000000       1.502480000000       0.003027862862      -0.091399907603       0.022427329749
34 1       8.406740000000       3.679130000000       3.240640000000       0.003063322998       0.091474477197      -0.022486024240
35 1       8.422250000000       1.502480000000       1.079490000000       0.091359227838       0.022422970858      -0.003014803472
36 1       8.422250000000       3.240640000000       5.822600000000       0.091359031825      -0.022460923180      -0.002934974487
37 1       1.063990000000       3.240640000000       1.079490000000      -0.091475119042      -0.022475905158      -0.003038923378
38 1       1.063990000000       1.502480000000       5.822600000000      -0.091462719573       0.022423385052      -0.002949614621
39 1       1.079490000000       8.422250000000       1.502480000000      -0.003014803472       0.091359227838       0.022422970858
40 1       1.079490000000       1.063990000000       3.240640000000      -0.003038923378      -0.091475119042      -0.022475905158
41 1       1.502480000000       5.822600000000       1.063990000000       0.022423385052      -0.002949614621      -0.091462719573
42 1       1.502480000000       3.663630000000       3.679130000000       0.022432364072       0.003033791556       0.091450654422
43 1       1.502480000000       1.079490000000       8.422250000000       0.022422970858      -0.003014803472       0.091359227838
44 1       1.502480000000       8.406740000000       5.807100000000       0.022427329749       0.003027862862      -0.091399907603
45 1       3.240640000000       3.663630000000       5.807100000000      -0.022464141491       0.003007811623      -0.091388287215
46 1       3.240640000000       1.079490000000       1.063990000000      -0.022475905158      -0.003038923378      -0.091475119042
47 1       3.240640000000       8.406740000000       3.679130000000      -0.022486024240       0.003063322998       0.091474477197
48 1       3.240640000000       5.822600000000       8.422250000000      -0.022460923180      -0.002934974487       0.091359031825
49 1       3.663630000000       3.679130000000       1.502480000000       0.003033791556       0.091450654422       0.022432364072
50 1       3.663630000000       5.807100000000       3.240640000000       0.003007811623      -0.091388287215      -0.022464141491
51 1       3.679130000000       1.502480000000       3.663630000000       0.091450654422       0.022432364072       0.003033791556
52 1       3.679130000000       3.240640000000       8.406740000000       0.091474477197      -0.022486024240       0.003063322998
53 1       5.807100000000       1.502480000000       8.406740000000      -0.091399907603       0.022427329749       0.003027862862
54 1       5.807100000000       3.240640000000       3.663630000000      -0.091388287215      -0.022464141491       0.003007811623
55 1       5.822600000000       8.422250000000       3.240640000000      -0.002934974487       0.091359031825      -0.022460923180
56 1       5.822600000000       1.063990000000       1.502480000000      -0.002949614621      -0.091462719573       0.022423385052
57 1       3.663630000000       1.063990000000       6.245590000000       0.003032773403      -0.091478221471       0.022516495934
58 1       3.663630000000       8.422250000000       7.983760000000       0.003048561100       0.091384869952      -0.022550044119
59 1       3.679130000000       6.245590000000       5.822600000000       0.091464300284       0.022521005176      -0.002966891004
60 1       3.679130000000       7.983760000000       1.079490000000       0.091487038022      -0.022569535407      -0.003086627628
61 1       5.807100000000       7.983760000000       5.822600000000      -0.091412271013      -0.022548791449      -0.002971340088
62 1       5.807100000000       6.245590000000       1.079490000000      -0.091402131118       0.022514831829      -0.003020738232
63 1       5.822600000000       3.679130000000       6.245590000000      -0.002966891004       0.091464300284       0.022521005176
64 1       5.822600000000       5.807100000000       7.983760000000      -0.002971340088      -0.091412271013      -0.022548791449
65 1       6.245590000000       1.079490000000       5.807100000000       0.022514831829      -0.003020738232      -0.091402131118
66 1       6.245590000000       8.406740000000       8.422250000000       0.022517222056       0.003038184325       0.091386153663
67 1       6.245590000000       5.822600000000       3.679130000000       0.022521005176      -0.002966891004       0.091464300284
68 1       6.245590000000       3.663630000000       1.063990000000       0.022516495934       0.003032773403      -0.091478221471
69 1       7.983760000000       8.406740000000       1.063990000000      -0.022566165180       0.003092733654      -0.091512381894
70 1       7.983760000000       5.822600000000       5.807100000000      -0.022548791449      -0.002971340088      -0.091412271013
71 1       7.983760000000       3.663630000000       8.422250000000      -0.022550044119       0.003048561100       0.091384869952
72 1       7.983760000000       1.079490000000       3.679130000000      -0.022569535407      -0.003086627628       0.091487038022
73 1       8.406740000000       8.422250000000       6.245590000000       0.003038184325       0.091386153663       0.022517222056
74 1       8.406740000000       1.063990000000       7.983760000000       0.003092733654      -0.091512381894      -0.022566165180
75 1       8.422250000000       6.245590000000       8.406740000000       0.091386153663       0.022517222056       0.003038184325
76 1       8.422250000000       7.983760000000       3.663630000000       0.091384869952      -0.022550044119       0.003048561100
77 1       1.063990000000       6.245590000000       3.663630000000      -0.091478221471       0.022516495934       0.003032773403
78 1       1.063990000000       7.983760000000       8.406740000000      -0.091512381894      -0.022566165180       0.003092733654
79 1       1.079490000000       3.679130000000       7.983760000000      -0.003086627628       0.091487038022      -0.022569535407
80 1       1.079490000000       5.807100000000       6.245590000000      -0.003020738232      -0.091402131118       0.022514831829
