ITEM: TIMESTEP
0
ITEM: NUMBER OF ATOMS
80
ITEM: BOX BOUNDS pp pp pp
0.0000000000000000e+00 9.2227256640000004e+00
0.0000000000000000e+00 9.2227256640000004e+00
0.0000000000000000e+00 9.2227256640000004e+00
ITEM: ATOMS id type c_pe_atom
1 2      -4.665070660568
2 2      -4.437981125445
3 2      -4.438043340864
4 2      -4.437966978324
5 2      -4.438043340864
6 2      -4.437979373218
7 2      -4.437966978324
8 2      -4.665070660568
9 2      -4.665035198897
10 2      -4.665070660568
11 2      -4.437979373218
12 2      -4.437966978324
13 2      -4.437981125445
14 2      -4.437979373218
15 2      -4.437981125445
16 2      -4.438043340864
17 2      -4.665106120715
18 2      -4.438046240070
19 2      -4.438035693676
20 2      -4.438060387312
21 2      -4.438035693676
22 2      -4.438099660674
23 2      -4.438060387312
24 2      -4.665106120715
25 2      -4.665141580297
26 2      -4.665106120715
27 2      -4.438099660674
28 2      -4.438060387312
29 2      -4.438046240070
30 2      -4.438099660674
31 2      -4.438046240070
32 2      -4.438035693676
33 1      -6.864116634101
34 1      -6.864188209829
35 1      -6.864138922865
36 1      -6.864179035843
37 1      -6.864127253962
38 1      -6.864151689507
39 1      -6.864138922865
40 1      -6.864127253962
41 1      -6.864151689507
42 1      -6.864206279544
43 1      -6.864138922865
44 1      -6.864116634101
45 1      -6.864150379620
46 1      -6.864127253962
47 1      -6.864188209829
48 1      -6.864179035843
49 1      -6.864206279544
50 1      -6.864150379620
51 1      -6.864206279544
52 1      -6.864188209829
53 1      -6.864116634101
54 1      -6.864150379620
55 1      -6.864179035843
56 1      -6.864151689507
57 1      -6.864131992534
58 1      -6.864208845847
59 1      -6.864134171754
60 1      -6.864159243885
61 1      -6.864127781472
62 1      -6.864038159596
63 1      -6.864134171754
64 1      -6.864127781472
65 1      -6.864038159596
66 1      -6.864125591545
67 1      -6.864134171754
68 1      -6.864131992534
69 1      -6.864163433332
70 1      -6.864127781472
71 1      -6.864208845847
72 1      -6.864159243885
73 1      -6.864125591545
74 1      -6.864163433332
75 1      -6.864125591545
76 1      -6.864208845847
77 1      -6.864131992534
78 1      -6.864163433332
79 1      -6.864159243885
80 1      -6.864038159596
