ITEM: TIMESTEP
0
ITEM: NUMBER OF ATOMS
30
ITEM: BOX BOUNDS xy xz yz pp pp pp
-2.4862843505000001e+00 4.9725687210000000e+00 -2.4862843505000001e+00
0.0000000000000000e+00 4.3063712450000002e+00 0.0000000000000000e+00
0.0000000000000000e+00 1.3386510979000001e+01 0.0000000000000000e+00
ITEM: ATOMS id type c_pe_atom
1 2      -2.181623197604
2 2      -2.181481571370
3 2      -2.181608250165
4 2      -2.181582230259
5 2      -2.181383797495
6 2      -2.181624195008
7 2      -2.181381315628
8 2      -2.181619364109
9 2      -2.181622411365
10 2      -2.181590642760
11 2      -2.181612710306
12 2      -2.181469386876
13 1      -8.412243614126
14 1      -8.412261757369
15 1      -8.412168428731
16 1      -8.412338286632
17 1      -8.412291742330
18 1      -8.412267321767
19 1      -8.412414833560
20 1      -8.412333668996
21 1      -8.412409533420
22 1      -8.412377044880
23 1      -8.412428159336
24 1      -8.412377420395
25 1      -8.412324445860
26 1      -8.412221293823
27 1      -8.412363809620
28 1      -8.412217676433
29 1      -8.412182372272
30 1      -8.412320613086
