ITEM: TIMESTEP
0
ITEM: NUMBER OF ATOMS
160
ITEM: BOX BOUNDS pp pp pp
0.0000000000000000e+00 8.4044863139999997e+00
0.0000000000000000e+00 8.4044863139999997e+00
0.0000000000000000e+00 2.5213458942999999e+01
ITEM: ATOMS id type c_pe_atom
1 2     -10.397075994834
2 2      -9.411699712685
3 2      -9.498530124507
4 2     -10.394645410362
5 2     -10.466710653941
6 2     -10.415998257758
7 2      -9.531753753274
8 2      -9.668279473445
9 2      -9.452555131685
10 2      -9.469465529429
11 2      -9.541417524089
12 2     -10.520905664564
13 2     -10.414178893981
14 2     -10.438075884818
15 2      -9.476997577032
16 2      -9.836180056132
17 2      -9.521943919968
18 2     -10.345423627150
19 2      -9.525084310878
20 2      -9.763914447106
21 2      -5.935207720089
22 2      -5.267734678690
23 2      -5.817444284349
24 2      -4.548769732917
25 2      -5.220925659147
26 2      -6.440034348956
27 2      -6.496583753705
28 2      -4.418764517830
29 2      -6.695255559438
30 2      -5.520651109332
31 2      -5.252364193460
32 2      -5.425065755874
33 2      -4.826852832372
34 2      -4.835441265321
35 2      -5.244974809563
36 2      -4.690023519924
37 2      -6.059825139879
38 2      -4.871767378633
39 2      -6.502142003135
40 2      -6.509031079491
41 2      -5.773625488629
42 2      -6.092146784500
43 2      -5.339662607844
44 2      -5.049329290606
45 2      -4.828935208647
46 2      -4.783198501539
47 2      -4.961146118208
48 2      -6.015878461282
49 2      -4.987527912585
50 2      -6.257675348611
51 2      -6.394265629380
52 2      -5.072828066386
53 2      -4.672960415045
54 2      -5.148956521147
55 2      -5.206071377358
56 2      -5.693747472778
57 2      -5.276254793467
58 2      -5.296372786996
59 2      -5.215898979621
60 2      -6.503807162835
61 2     -10.230306606309
62 2     -10.075330946667
63 2      -9.945741048169
64 2     -10.130943020801
65 1      -6.759596832578
66 1      -6.995362501822
67 1      -3.474542892891
68 1      -3.012569117933
69 1      -2.763991506046
70 1      -3.087032432164
71 1      -6.798127375184
72 1      -2.993842242875
73 1      -6.860766535971
74 1      -2.936514393658
75 1      -2.811356361645
76 1      -7.428048875995
77 1      -3.798558861444
78 1      -3.559540821617
79 1      -2.860516465278
80 1      -7.876749041771
81 1      -6.811160936885
82 1      -6.750121843517
83 1      -7.023180335770
84 1      -7.189232990071
85 1      -3.429431139090
86 1      -3.124913510240
87 1      -6.713236459142
88 1      -7.205050455663
89 1      -7.256578917789
90 1      -6.824650799077
91 1      -2.979709009421
92 1      -6.446730808214
93 1      -3.580427188087
94 1      -2.927671174081
95 1      -7.980621366567
96 1      -2.971070681087
97 1      -3.021505652364
98 1      -7.490377870438
99 1      -7.423462451184
100 1      -3.406309416600
101 1      -6.494327225477
102 1      -3.264937519975
103 1      -3.688584139999
104 1      -6.934714431146
105 1      -3.029579392439
106 1      -6.757702271694
107 1      -3.014705812712
108 1      -3.221651847844
109 1      -7.190193883618
110 1      -6.696391497385
111 1      -3.056410973160
112 1      -2.856595836237
113 1      -3.598378367821
114 1      -2.850318218492
115 1      -6.851507270113
116 1      -6.833941251209
117 1      -7.144014415835
118 1      -6.772634639970
119 1      -3.533090512681
120 1      -3.864088373350
121 1      -7.058734629289
122 1      -7.349213150811
123 1      -3.208762847241
124 1      -2.667403768160
125 1      -7.326096653677
126 1      -3.177700878131
127 1      -7.121621652777
128 1      -7.149543143313
129 1      -3.675642885944
130 1      -6.821080682454
131 1      -3.667743221999
132 1      -6.846393065348
133 1      -7.063629121467
134 1      -7.977627833127
135 1      -6.504338043141
136 1      -3.861145727444
137 1      -3.019003531732
138 1      -6.507899790596
139 1      -6.933770835234
140 1      -2.976970108799
141 1      -3.161247315958
142 1      -6.983286659578
143 1      -3.034215871333
144 1      -6.758148114205
145 1      -2.564283048836
146 1      -3.661699835167
147 1      -6.813006863692
148 1      -3.029094570487
149 1      -3.091786666964
150 1      -7.135135674148
151 1      -6.802096827562
152 1      -7.462553374395
153 1      -6.676667026931
154 1      -3.580311997746
155 1      -2.732082478405
156 1      -6.588668881324
157 1      -6.676628438524
158 1      -3.740894083127
159 1      -3.171507881684
160 1      -3.256097837995
