ITEM: TIMESTEP
0
ITEM: NUMBER OF ATOMS
30
ITEM: BOX BOUNDS xy xz yz pp pp pp
-2.5723675159999999e+00 5.1447350519999997e+00 -2.5723675159999999e+00
0.0000000000000000e+00 4.4554716750000001e+00 0.0000000000000000e+00
0.0000000000000000e+00 1.3849995066000000e+01 0.0000000000000000e+00
ITEM: ATOMS id type x y z fx fy fz
1 2       0.000000000000       0.000000000000       1.996330000000       0.000010356452       0.000013254331      -0.180563251390
2 2       0.000000006667       2.970310000000       0.312010000000      -0.000014062964       0.000095653113       0.180378231271
3 2       2.572370003333       1.485160000000       2.620330000000      -0.000036828769      -0.000023483676       0.180602467376
4 2       0.000000006667       2.970310000000       4.304670000000      -0.000007973890       0.000114174942      -0.180513902455
5 2       2.572370003333       1.485160000000       6.612990000000      -0.000075951508      -0.000095691720      -0.180459254598
6 2       0.000000000000       0.000000000000       4.928670000000      -0.000022465963      -0.000026551669       0.180581880993
7 2       0.000000006667       2.970310000000       7.237010000000       0.000073139749       0.000096700415       0.180456465686
8 2       0.000000000000       0.000000000000       8.921330000000       0.000064373959       0.000011865304      -0.180566085736
9 2       0.000000006667       2.970310000000      11.229660000000       0.000013075157       0.000124734356      -0.180457320373
10 2       2.572370003333       1.485160000000       9.545330000000      -0.000031027870      -0.000033554254       0.180585432602
11 2       0.000000000000       0.000000000000      11.853670000000      -0.000013604178      -0.000023232445       0.180568534653
12 2       2.572370003333       1.485160000000      13.537990000000      -0.000096365024      -0.000081136675      -0.180572419357
13 1      -0.779439996970       1.350040000000       3.462500000000      -0.070968052672       0.122746933944      -0.000046006022
14 1       1.558890000000       0.000000000000       3.462500000000       0.141791674039       0.000009196448      -0.000010829877
15 1       1.792920006970       3.105440000000       3.462500000000      -0.070824383880      -0.122867857853      -0.000037192009
16 1       3.351810000303       0.135120000000       1.154160000000       0.070963719648      -0.122765198280       0.000115856752
17 1       3.351810006363       2.835190000000       1.154160000000       0.070850131840       0.122879435195       0.000121596878
18 1       1.013480003333       1.485160000000       1.154160000000      -0.141785035352      -0.000136038308       0.000141850941
19 1       1.792930006363       2.835190000000       8.079160000000      -0.070902321810       0.122856953039       0.000090371890
20 1       4.131260003333       1.485160000000       8.079160000000       0.141743506882      -0.000134891040       0.000133487630
21 1       1.792930000303       0.135120000000       8.079160000000      -0.071008602659      -0.122748314207       0.000124107354
22 1       0.779440003637       1.620280000000       5.770840000000       0.070906396204      -0.122854523202      -0.000089546634
23 1       0.779440009697       4.320350000000       5.770840000000       0.070993426540       0.122761008809      -0.000111243884
24 1      -1.558889993333       2.970310000000       5.770840000000      -0.141762520533       0.000155253183      -0.000153038476
25 1      -0.779439990303       4.320350000000      12.695830000000      -0.070972313811       0.122801863132      -0.000006956289
26 1       1.558880006667       2.970310000000      12.695830000000       0.141883982114       0.000075514307      -0.000036029588
27 1      -0.779449996363       1.620280000000      12.695830000000      -0.070788021326      -0.122839140658      -0.000042133542
28 1      -1.792919993030       3.105440000000      10.387500000000       0.070816279462      -0.122861581867      -0.000070256525
29 1       0.779440003030       1.350040000000      10.387500000000       0.071029402580       0.122720579807      -0.000102031751
30 1       3.585850000000       0.000000000000      10.387500000000      -0.141829932416       0.000028075530      -0.000062785521
