ITEM: TIMESTEP
0
ITEM: NUMBER OF ATOMS
160
ITEM: BOX BOUNDS pp pp pp
0.0000000000000000e+00 8.2637155969999991e+00
0.0000000000000000e+00 8.2637155969999991e+00
0.0000000000000000e+00 2.4791146791999999e+01
ITEM: ATOMS id type x y z fx fy fz
1 2       1.202430000000       5.132720000000      21.789460000000       0.008997821681       0.036670236407      -0.011130180418
2 2       5.128550000000       0.834190000000      13.499790000000      -0.222831095988      -0.033264193799      -0.038424872887
3 2       7.055600000000       7.305050000000       7.294210000000      -0.112091252171       0.169575548924      -0.057686937534
4 2       7.192550000000       7.034900000000      15.571240000000      -0.015705713513      -0.134252937905       0.103099728930
5 2       5.150250000000       5.184610000000       0.967590000000       0.025919405627       0.241086255143      -0.117989368217
6 2       2.989890000000       3.163210000000       7.121560000000      -0.054313351649      -0.194949299884      -0.001675806865
7 2       0.931810000000       1.035360000000       1.091730000000      -0.092683879152      -0.042397617051      -0.000958196877
8 2       5.098310000000       1.025280000000       5.173940000000       0.016355068154       0.055990888397       0.015058175909
9 2       3.136940000000       2.917690000000      15.434200000000      -0.081879666438       0.106649866401      -0.034620236766
10 2       5.316230000000       1.098390000000      21.626840000000      -0.125749548696       0.023130371225       0.051396136149
11 2       3.090980000000       7.152010000000      11.365690000000      -0.007978957086       0.006169888784      -0.028374292596
12 2       7.320150000000       3.151540000000      19.552450000000       0.149427601643      -0.064589026167      -0.109482227728
13 2       1.006440000000       5.026460000000      13.314200000000       0.070492641286       0.046109170056      -0.038610865571
14 2       7.235150000000       3.171850000000       3.161610000000      -0.030208101951      -0.244302917770       0.137293894878
15 2       5.032930000000       5.271810000000       9.242390000000      -0.167582299605       0.094176417301       0.038508412039
16 2       7.260170000000       7.335370000000      23.788060000000      -0.020547811480      -0.078178346226       0.027728254156
17 2       3.152070000000       7.357830000000      19.685680000000      -0.177317014920      -0.062857784149       0.032329093393
18 2       0.896120000000       1.065180000000       9.389150000000       0.184217421724       0.080078863196       0.027885097391
19 2       3.187930000000       7.328740000000       3.036850000000       0.064864787379       0.051175973564      -0.012191323630
20 2       1.157750000000       1.026080000000      17.587850000000      -0.044213529458       0.025778807165       0.049298050178
21 2       3.865470000000       0.197220000000       8.277310000000       0.131928548010      -0.108929232466       0.047092278749
22 2       6.061220000000       6.028910000000      12.372390000000       0.033113576122      -0.099189727046      -0.056910897689
23 2       2.133980000000       2.122350000000      20.675240000000       0.011806309079      -0.099723011874       0.039128714150
24 2       6.320180000000       6.204660000000      20.614870000000      -0.100616998359      -0.237787466132       0.100975286752
25 2       1.929880000000       6.308210000000       8.170880000000      -0.073441317333       0.042736521816      -0.066644143384
26 2       8.225280000000       2.030540000000       6.160100000000       0.179703869194       0.070207474834      -0.206574139618
27 2       1.969230000000       2.062400000000       4.172060000000      -0.179909096078       0.020366788863       0.166508352235
28 2       0.037310000000       1.986430000000      14.410430000000       0.082775726184       0.341702490246       0.116271759290
29 2       0.173650000000       6.120510000000      18.552510000000      -0.055219690898      -0.134540939660      -0.197138462971
30 2       6.187330000000       0.054480000000       2.074870000000       0.004168446324       0.000894379076      -0.025177681726
31 2       6.016360000000       0.077920000000      10.392610000000      -0.039118271554       0.073315227792       0.039348379287
32 2       4.125590000000       2.166760000000      18.546600000000       0.017511839693       0.062167985367      -0.076691641070
33 2       6.327400000000       8.212330000000      18.590760000000       0.150373489059       0.131760382973      -0.166136578867
34 2       6.268150000000       2.042620000000      16.519510000000      -0.082528530210      -0.063317045926       0.342682222503
35 2       0.158590000000       2.047530000000      22.778120000000       0.052438016643       0.092911411249       0.327870662734
36 2       1.997970000000       8.045140000000      14.560770000000      -0.048747404313      -0.032558503967      -0.006779620212
37 2       3.963580000000       5.940410000000      14.471070000000       0.142682610796       0.074770563517       0.053500146971
38 2       6.183080000000       4.152700000000       6.208660000000      -0.113794028640      -0.018911297967      -0.317324764522
39 2       4.148090000000       6.306940000000      22.766240000000      -0.090278410698       0.091851829476       0.201804372583
40 2       0.101580000000       4.134710000000      16.531660000000       0.066531407136       0.071644594424       0.177391144192
41 2       2.058650000000       4.185350000000       2.065300000000      -0.006999219918      -0.018712229238       0.002428789057
42 2       4.096370000000       4.244200000000      20.609320000000      -0.021589485039       0.039312405588       0.054007990623
43 2       4.095200000000       8.064820000000      16.592570000000       0.005305907349      -0.104362456146       0.020351823027
44 2       6.202850000000       4.188320000000      22.695270000000       0.124054840372      -0.100296162132       0.130880939039
45 2       8.199770000000       6.113860000000      10.318750000000      -0.047604715369       0.123248211068       0.369394154711
46 2       8.243950000000       8.207400000000      12.410170000000      -0.009697452322      -0.212591892512      -0.457939987760
47 2       0.050050000000       4.215050000000       0.025330000000      -0.169209749408       0.035452873974      -0.209923361629
48 2       6.144000000000       4.015470000000      14.438230000000       0.053438141796       0.245837005508      -0.025162970477
49 2       4.067040000000       4.143870000000       4.107340000000       0.163100329826      -0.061964898878       0.272649213812
50 2       2.104610000000       2.007720000000      12.317780000000       0.035658033378       0.158068936168      -0.130585337114
51 2       2.070030000000       4.050170000000      10.342610000000      -0.058109093498      -0.153356059152       0.132660802494
52 2       0.036450000000       6.333160000000       2.170900000000       0.255038176287       0.059019299854      -0.047678976820
53 2       0.199660000000       8.227020000000      20.762080000000       0.086228708806      -0.204988755227      -0.096545592094
54 2       4.067380000000       2.027440000000       1.952820000000      -0.200913109196      -0.059591464371      -0.027929711969
55 2       6.120830000000       2.034380000000      24.747610000000      -0.009300367892      -0.008717535954      -0.313150602753
56 2       8.232370000000       4.092970000000       8.260970000000       0.174631652221      -0.223474179948      -0.035256811961
57 2       6.010550000000       2.141710000000       8.366470000000      -0.045022363292       0.061010712773       0.005742351837
58 2       3.961720000000       6.341490000000       6.137430000000      -0.041915611456      -0.002840416529      -0.026695533137
59 2       6.251170000000       6.329430000000       4.181010000000       0.014437463866       0.004063691120       0.322810618818
60 2       2.150180000000       6.306170000000      24.754820000000       0.157904468843      -0.065649796279      -0.177606978160
61 2       5.111420000000       3.083480000000      11.405940000000      -0.085981098732      -0.067155014850       0.030007339136
62 2       3.128750000000       1.077990000000      23.736830000000       0.058676583083      -0.008245600409      -0.046886164656
63 2       3.147020000000       5.094400000000      17.558210000000      -0.074131139264       0.084883301049       0.021421572997
64 2       0.972720000000       7.281730000000       5.153580000000       0.002060284326       0.033172103066       0.020067724496
65 1       2.088140000000       2.124910000000       2.098310000000       0.168352981821      -0.057282468598      -0.143006681702
66 1       6.053960000000       6.155010000000       6.163740000000       0.127884981982      -0.147217609040      -0.186496674589
67 1       4.155850000000       8.219660000000       6.332630000000      -0.009824716939       0.133173518102       0.027202526085
68 1       4.244560000000       0.128430000000       2.019180000000      -0.043154398147      -0.049578603500       0.073844499893
69 1       8.151560000000       6.221090000000       4.078210000000       0.060483563006       0.008849190872       0.098251031886
70 1       0.021450000000       2.109770000000       4.206550000000      -0.033169412107       0.039841716007      -0.032843063048
71 1       6.130050000000       4.124490000000       8.230210000000       0.022678100782      -0.177795158448      -0.019401016602
72 1       1.924650000000       4.358230000000       0.192860000000      -0.095412232419       0.162199086221       0.025602161264
73 1       8.260680000000       4.284390000000       2.037990000000       0.048579483546       0.042788966976      -0.134240125851
74 1       8.051660000000       3.984060000000       6.391100000000      -0.137437890455      -0.117827402361       0.047873392365
75 1       4.218050000000       2.131830000000       0.039590000000      -0.058072778922       0.001733899015      -0.041216425923
76 1       3.959960000000       6.312590000000       8.137790000000      -0.019434220048       0.038862736414      -0.209719819126
77 1       2.085310000000       0.078940000000       4.110840000000       0.024227228355       0.019736858099      -0.069658464337
78 1       6.079210000000       8.218760000000       4.037980000000      -0.026823980606       0.087878923946       0.000605518393
79 1       2.058950000000       6.254130000000       6.253660000000      -0.094618582703       0.011696828259      -0.081782340035
80 1       6.137090000000       2.102050000000       2.003160000000       0.068091856032       0.038296990154       0.017340141206
81 1       4.119580000000       4.075860000000       2.089040000000      -0.056376941704      -0.042785258849       0.122877196587
82 1       4.168050000000       4.271470000000       6.100080000000       0.011485305393       0.012074291272      -0.173013220122
83 1       8.062510000000       2.074890000000       8.234220000000       0.021478529690       0.069173845599       0.092851088719
84 1       0.049000000000       6.217790000000       0.094180000000       0.007750164277      -0.145135930749      -0.099256129890
85 1       8.120060000000       0.063210000000       6.210430000000      -0.016171915234      -0.102603802916       0.025626561865
86 1       8.132340000000       8.236710000000       2.109530000000       0.035455618317       0.048289576828      -0.055018838536
87 1       4.184100000000       6.155360000000       4.165470000000      -0.141926784632      -0.071021695256       0.211071410689
88 1       4.062300000000       2.141620000000       4.044340000000       0.009502972205       0.157663323776       0.090782675847
89 1       6.166720000000       2.140160000000       6.272100000000      -0.025792045694       0.080537217603      -0.077918591522
90 1       2.025700000000       6.242920000000       2.030040000000      -0.198389071902       0.046776077330       0.161119387602
91 1       2.192810000000       4.010880000000       3.935230000000       0.105202299268      -0.161727782910      -0.016160590879
92 1       6.072800000000       4.256950000000       4.205680000000      -0.068829147187       0.005647651465       0.101553946036
93 1       6.279080000000       0.144000000000       0.109360000000       0.048170355027      -0.074983125120       0.005307053488
94 1       1.982340000000       8.220570000000       8.368920000000       0.023060275669       0.076489609596      -0.008374418673
95 1       6.236590000000       6.263040000000       2.127140000000      -0.068844197383      -0.036745662879      -0.001170668618
96 1       1.907950000000       2.094940000000       6.101750000000       0.089297152632       0.026512971941       0.069687555534
97 1       2.025390000000       2.108130000000      10.384490000000      -0.036375543192      -0.090584474045      -0.040087257378
98 1       6.115810000000       6.044510000000      14.390120000000      -0.073951118352      -0.011361183782      -0.097944272183
99 1       4.047840000000       8.067260000000      14.597280000000       0.031589341247       0.012485275512       0.207742819600
100 1       4.135700000000       8.134170000000      10.212070000000      -0.137733077238       0.002163497396      -0.044560704014
101 1       8.126500000000       6.204690000000      12.314050000000       0.028076048044       0.114003154616      -0.209661957928
102 1       0.146020000000       1.811650000000      12.545100000000       0.156835155069      -0.126747647521       0.084505210471
103 1       6.431060000000       3.899850000000      16.326480000000       0.063924980086      -0.148100334033      -0.020507832258
104 1       1.994780000000       4.257760000000       8.285020000000      -0.042064124932      -0.003771792214      -0.081501566225
105 1       0.105240000000       4.247880000000      10.130650000000       0.179333420903       0.108320314251      -0.009285589762
106 1       8.256650000000       3.966560000000      14.485230000000      -0.021915771494      -0.156036556915      -0.113573648828
107 1       4.096750000000       2.084370000000       8.154800000000      -0.088082023751      -0.022740155627      -0.006648153928
108 1       4.125490000000       6.178160000000      16.416260000000      -0.060118664828      -0.079511091097       0.004210989774
109 1       1.991640000000       8.215590000000      12.465570000000      -0.115829657698      -0.031294264574      -0.052993527798
110 1       6.240240000000       8.097120000000      12.357970000000       0.143848033788       0.169845557943      -0.149735038410
111 1       2.061990000000       6.149850000000      14.349070000000       0.018396365262      -0.055522132763      -0.002364744309
112 1       6.095890000000       1.985470000000      10.276090000000      -0.000492088260       0.086439741919       0.086306427698
113 1       4.049080000000       4.184380000000      10.336590000000       0.023114635892       0.043739278836      -0.057230738121
114 1       4.216350000000       4.053340000000      14.497580000000      -0.101864674478      -0.047565645138      -0.001861037571
115 1       0.021810000000       2.013250000000      16.429830000000      -0.070601260614       0.004733182563      -0.072108793727
116 1       8.205920000000       6.194600000000       8.295920000000       0.228490504674      -0.048424456245       0.028339940310
117 1       0.021020000000       8.164360000000      14.460430000000       0.207565913864      -0.024893540095      -0.009788088284
118 1       8.080710000000       8.130510000000      10.415680000000      -0.009941049428      -0.020661671242       0.149724814736
119 1       4.183290000000       6.228900000000      12.531960000000      -0.107072007961      -0.003551432305      -0.014715399481
120 1       4.087710000000       1.915830000000      12.437360000000      -0.027898119064      -0.010318309759       0.019202573782
121 1       6.282250000000       1.947150000000      14.495940000000       0.118142206455       0.021684514768       0.060122235102
122 1       1.956800000000       6.120140000000      10.254070000000      -0.045488999224       0.000396384547       0.080838576571
123 1       2.058410000000       3.957200000000      12.278130000000      -0.025922029977       0.038714490677       0.126524535908
124 1       6.181970000000       4.130250000000      12.502920000000      -0.023773583514      -0.080068559344      -0.132560909580
125 1       6.011170000000       0.107320000000       8.394390000000      -0.020558455649      -0.017293851147       0.196315682592
126 1       2.189770000000       0.013470000000      16.458370000000      -0.115487784490       0.043148314152       0.055903404006
127 1       6.199350000000       6.246650000000      10.375800000000       0.169684919609      -0.117837346416       0.108900722863
128 1       2.049710000000       1.837260000000      14.378590000000      -0.100347125538       0.006981406789       0.057189256571
129 1       2.233510000000       2.002450000000      18.708050000000      -0.079285662406      -0.034797200094      -0.028887563177
130 1       6.245730000000       6.217860000000      22.635240000000      -0.000978423714       0.019128445420      -0.052549130719
131 1       4.267910000000       0.029620000000      22.692070000000       0.020389243902      -0.045137513992       0.017402155979
132 1       4.312860000000       0.075250000000      18.546320000000       0.079249840525      -0.125164313421      -0.131033112329
133 1       0.099620000000       6.249240000000      20.669090000000       0.063789068430       0.188292003946       0.070105410050
134 1       0.098910000000       2.046680000000      20.722530000000      -0.017302911625       0.048094953843       0.000378244228
135 1       6.310030000000       4.105880000000      24.707230000000       0.076618785958       0.013061682237      -0.054750812549
136 1       2.077250000000       3.980570000000      16.507180000000       0.051334874322      -0.062169001626       0.047710780017
137 1       0.102230000000       4.176620000000      18.477450000000      -0.058139318497      -0.035742796530       0.076123447367
138 1       8.220120000000       4.098380000000      22.811570000000      -0.022020243557      -0.006165070412       0.184416652012
139 1       4.274450000000       1.902110000000      16.585260000000       0.149554343332       0.094443266705       0.103989564946
140 1       4.103310000000       6.248770000000      24.709210000000       0.018798927115      -0.052977868782       0.075961928973
141 1       2.082890000000       0.151610000000      20.702160000000       0.032855529402       0.038033118984      -0.049587237106
142 1       6.400760000000       8.260730000000      20.589280000000       0.023295047010      -0.044549181888      -0.248109760391
143 1       2.202670000000       6.270630000000      22.821850000000      -0.109878469781      -0.004494544236      -0.149005600179
144 1       6.213790000000       1.964030000000      18.523340000000      -0.032711352524      -0.048912198302      -0.108416785851
145 1       4.216100000000       4.069270000000      18.685100000000      -0.011248775080       0.050412162502      -0.108341753132
146 1       4.350630000000       4.374720000000      22.505270000000       0.132927809885       0.113128815358      -0.008750981894
147 1       8.194190000000       2.208670000000      24.756610000000       0.152218992023       0.085343454288      -0.224170969669
148 1       0.077180000000       6.070390000000      16.604010000000      -0.017012034080       0.134869731850      -0.088910982169
149 1       8.221160000000       0.147590000000      22.651740000000      -0.042605471067      -0.093710332507       0.082508044143
150 1       0.061790000000       8.223300000000      18.686700000000      -0.174917345355      -0.014001488221      -0.083658351426
151 1       4.303800000000       6.264270000000      20.688610000000       0.087551319985      -0.010917622963      -0.132745898119
152 1       4.194270000000       2.169480000000      20.566670000000       0.096398465032      -0.053288267470      -0.068411757554
153 1       6.334970000000       2.205260000000      22.770700000000      -0.120602355890       0.091497655217       0.155244066332
154 1       2.130980000000       6.234810000000      18.630580000000       0.099445556052       0.056005481411      -0.013390738190
155 1       2.185810000000       4.062180000000      20.679030000000       0.009002774815       0.035675866700       0.040297724937
156 1       6.261030000000       4.221830000000      20.683490000000      -0.205491049083       0.175049628468       0.121871991636
157 1       6.165080000000       0.012280000000      16.594180000000      -0.003077996608       0.001434620715       0.142724226898
158 1       2.038170000000       0.018910000000       0.021100000000      -0.045484904428       0.033320668909       0.043520856514
159 1       6.494050000000       6.340440000000      18.748930000000       0.106860204672       0.102499862684       0.103243754323
160 1       2.043700000000       2.107490000000      22.643860000000       0.002944813791      -0.041448134101       0.002496363054
