ITEM: TIMESTEP
0
ITEM: NUMBER OF ATOMS
40
ITEM: BOX BOUNDS pp pp pp
0.0000000000000000e+00 8.9253610309999996e+00
0.0000000000000000e+00 5.1975179110000003e+00
0.0000000000000000e+00 9.5503985629999999e+00
ITEM: ATOMS id type x y z fx fy fz
1 2       1.394550000000       1.612250000000       8.489240000000       0.105723290225      -0.042836934006       0.020156930942
2 2       3.178720000000       4.211000000000       8.489240000000      -0.105639169376      -0.042697006269       0.020209420587
3 2       5.885340000000       0.909530000000       7.630340000000      -0.039559960484      -0.044454424870      -0.049282852081
4 2       7.613290000000       3.508290000000       7.630350000000       0.039429447693      -0.044553646544      -0.049405463497
5 2       4.811860000000       3.522700000000       5.694760000000       0.200716052204      -0.141708418903       0.058085283148
6 2       1.498730000000       3.570040000000       5.820380000000       0.095500906888      -0.034835839259       0.265365082579
7 2       3.074530000000       0.971290000000       5.820380000000      -0.095359974592      -0.034939437017       0.265343089888
8 2       8.686770000000       0.923930000000       5.694760000000      -0.200675271149      -0.141561158165       0.058117081971
9 2       1.422560000000       1.688740000000       2.855280000000      -0.037208707211       0.049903518279      -0.050138471546
10 2       3.150710000000       4.287500000000       2.855280000000       0.037370285286       0.049854371946      -0.050035477611
11 2       5.856620000000       0.987170000000       3.713930000000       0.102969093765       0.043176889702       0.022167256629
12 2       7.642010000000       3.585930000000       3.713930000000      -0.103005538925       0.043122833852       0.022153647773
13 2       4.224700000000       1.675350000000       0.919840000000      -0.197588037159       0.141679075593       0.060869484717
14 2       5.961320000000       4.226270000000       1.044780000000       0.095604820554       0.035702437304       0.266136102352
15 2       7.537320000000       1.627510000000       1.044780000000      -0.095771955649       0.035744562166       0.266183292222
16 2       0.348570000000       4.274110000000       0.919840000000       0.197577613773       0.141715333951       0.060866603863
17 1       7.451820000000       1.802420000000       4.490440000000       0.037189000910      -0.017679691361       0.006100763697
18 1       0.049210000000       0.791150000000       0.066970000000       0.112337089469      -0.076915360720       0.005338865652
19 1       7.476470000000       0.079580000000       7.056730000000       0.053431224050       0.115598565222      -0.132820195987
20 1       7.396080000000       5.031050000000       2.148570000000       0.061338142012      -0.131719085766      -0.097583296616
21 1       6.046810000000       4.401180000000       4.490440000000      -0.037111530845      -0.017666823266       0.006067606285
22 1       7.572330000000       3.393480000000       9.528790000000       0.025967667769       0.028166434598      -0.125277213169
23 1       6.022150000000       2.678350000000       7.056730000000      -0.053346068954       0.115483242189      -0.132767606673
24 1       6.102560000000       2.432290000000       2.148570000000      -0.061283362682      -0.131685158388      -0.097571341802
25 1       1.463270000000       1.803770000000       4.753850000000      -0.025814037115      -0.028236169104      -0.126258661073
26 1       2.989680000000       0.797050000000       9.265980000000       0.036367788088       0.015299086285       0.005129205048
27 1       1.641220000000       0.165330000000       6.924670000000      -0.061678028312       0.132932623291      -0.092822935118
28 1       1.559320000000       5.117740000000       2.281730000000      -0.049073109047      -0.118721416213      -0.131712737298
29 1       0.061810000000       4.406840000000       4.842310000000      -0.114012183873       0.076936824319       0.005719955008
30 1       1.583590000000       3.395810000000       9.265980000000      -0.036440513069       0.015363844686       0.005183081986
31 1       0.145400000000       2.470160000000       7.007260000000      -0.084525241785       0.035070384994       0.045381922887
32 1       8.890280000000       2.727030000000       2.232300000000       0.084966978327      -0.037466010706       0.045422665914
33 1       4.511460000000       1.808080000000       4.842310000000       0.113994396673       0.077002646162       0.005803720282
34 1       5.926300000000       0.794720000000       9.528790000000      -0.025911058705       0.028163281386      -0.125355230106
35 1       4.427860000000       5.068920000000       7.007260000000       0.084575724083       0.035108897798       0.045406465877
36 1       4.608360000000       0.128270000000       2.232300000000      -0.085036761210      -0.037497093500       0.045433082024
37 1       3.110010000000       4.402520000000       4.753860000000       0.025678265541      -0.028171769815      -0.126426061384
38 1       4.524060000000       3.389900000000       0.066970000000      -0.112259987789      -0.076775569785       0.005353241320
39 1       2.932040000000       2.764090000000       6.924680000000       0.061584682596       0.132849226090      -0.092836050285
40 1       3.013960000000       2.518980000000       2.281730000000       0.048978028024      -0.118753066157      -0.131700258406
