ITEM: TIMESTEP
0
ITEM: NUMBER OF ATOMS
80
ITEM: BOX BOUNDS pp pp pp
0.0000000000000000e+00 9.4109445550000004e+00
0.0000000000000000e+00 9.4109445550000004e+00
0.0000000000000000e+00 9.4109445550000004e+00
ITEM: ATOMS id type x y z fx fy fz
1 2       7.058210000000       2.352740000000       2.352740000000       0.000029911396      -0.000021863435      -0.000021951142
2 2       7.058210000000       4.367660000000       4.705470000000       0.000010990610       0.088223709506       0.000004692636
3 2       0.000000000000       7.058210000000       0.337820000000       0.000046091713       0.000024622165      -0.088361725411
4 2       0.000000000000       2.352740000000       4.367660000000       0.000058599242      -0.000108014393       0.088167980419
5 2       0.337820000000       0.000000000000       7.058210000000      -0.088361725411       0.000046091713       0.000024622165
6 2       0.337820000000       4.705470000000       2.352740000000      -0.088355875700       0.000017198306      -0.000094382667
7 2       2.352740000000       4.367660000000       0.000000000000      -0.000108014393       0.088167980419       0.000058599242
8 2       2.352740000000       7.058210000000       2.352740000000      -0.000021951142       0.000029911396      -0.000021863435
9 2       2.352740000000       2.352740000000       2.352740000000      -0.000050699548      -0.000050699548      -0.000050699548
10 2       2.352740000000       2.352740000000       7.058210000000      -0.000021863435      -0.000021951142       0.000029911396
11 2       2.352740000000       0.337820000000       4.705470000000      -0.000094382667      -0.088355875700       0.000017198306
12 2       4.367660000000       0.000000000000       2.352740000000       0.088167980419       0.000058599242      -0.000108014393
13 2       4.367660000000       4.705470000000       7.058210000000       0.088223709506       0.000004692636       0.000010990610
14 2       4.705470000000       2.352740000000       0.337820000000       0.000017198306      -0.000094382667      -0.088355875700
15 2       4.705470000000       7.058210000000       4.367660000000       0.000004692636       0.000010990610       0.088223709506
16 2       7.058210000000       0.337820000000       0.000000000000       0.000024622165      -0.088361725411       0.000046091713
17 2       2.352740000000       7.058210000000       7.058210000000      -0.000061835118       0.000005643312      -0.000005489351
18 2       2.352740000000       9.073130000000       0.000000000000      -0.000059304850       0.088294936820       0.000046317095
19 2       4.705470000000       2.352740000000       5.043290000000       0.000004917605      -0.000072936607      -0.088317862669
20 2       4.705470000000       7.058210000000       9.073130000000       0.000017423862      -0.000010455106       0.088350667276
21 2       5.043290000000       4.705470000000       2.352740000000      -0.088317862669       0.000004917605      -0.000072936607
22 2       5.043290000000       0.000000000000       7.058210000000      -0.088323712544       0.000058823870      -0.000024085992
23 2       7.058210000000       9.073130000000       4.705470000000      -0.000010455106       0.088350667276       0.000017423862
24 2       7.058210000000       2.352740000000       7.058210000000      -0.000005489351      -0.000061835118       0.000005643312
25 2       7.058210000000       7.058210000000       7.058210000000       0.000029993947       0.000029993947       0.000029993947
26 2       7.058210000000       7.058210000000       2.352740000000       0.000005643312      -0.000005489351      -0.000061835118
27 2       7.058210000000       5.043290000000       0.000000000000      -0.000024085992      -0.088323712544       0.000058823870
28 2       9.073130000000       4.705470000000       7.058210000000       0.088350667276       0.000017423862      -0.000010455106
29 2       9.073130000000       0.000000000000       2.352740000000       0.088294936820       0.000046317095      -0.000059304850
30 2       0.000000000000       7.058210000000       5.043290000000       0.000058823870      -0.000024085992      -0.088323712544
31 2       0.000000000000       2.352740000000       9.073130000000       0.000046317095      -0.000059304850       0.088294936820
32 2       2.352740000000       5.043290000000       4.705470000000      -0.000072936607      -0.088317862669       0.000004917605
33 1       8.330530000000       5.750850000000       1.486940000000      -0.046059993668      -0.015290759879       0.050199391278
34 1       8.330530000000       3.660090000000       3.218530000000      -0.046107419723       0.015308637322      -0.050154675412
35 1       8.365570000000       1.486940000000       1.080410000000       0.015178599294       0.050139811315       0.046171649129
36 1       8.365570000000       3.218530000000       5.785880000000       0.015155459348      -0.050087182546       0.046239948035
37 1       1.045380000000       3.218530000000       1.080410000000      -0.015238339733      -0.050102997010       0.046189434705
38 1       1.045380000000       1.486940000000       5.785880000000      -0.015243500818       0.050131052445       0.046188486441
39 1       1.080410000000       8.365570000000       1.486940000000       0.046171649129       0.015178599294       0.050139811315
40 1       1.080410000000       1.045380000000       3.218530000000       0.046189434705      -0.015238339733      -0.050102997010
41 1       1.486940000000       5.785880000000       1.045380000000       0.050131052445       0.046188486441      -0.015243500818
42 1       1.486940000000       3.625060000000       3.660090000000       0.050181978301      -0.046085671220       0.015301213204
43 1       1.486940000000       1.080410000000       8.365570000000       0.050139811315       0.046171649129       0.015178599294
44 1       1.486940000000       8.330530000000       5.750850000000       0.050199391278      -0.046059993668      -0.015290759879
45 1       3.218530000000       3.625060000000       5.750850000000      -0.050146013648      -0.046107497920      -0.015255031294
46 1       3.218530000000       1.080410000000       1.045380000000      -0.050102997010       0.046189434705      -0.015238339733
47 1       3.218530000000       8.330530000000       3.660090000000      -0.050154675412      -0.046107419723       0.015308637322
48 1       3.218530000000       5.785880000000       8.365570000000      -0.050087182546       0.046239948035       0.015155459348
49 1       3.625060000000       3.660090000000       1.486940000000      -0.046085671220       0.015301213204       0.050181978301
50 1       3.625060000000       5.750850000000       3.218530000000      -0.046107497920      -0.015255031294      -0.050146013648
51 1       3.660090000000       1.486940000000       3.625060000000       0.015301213204       0.050181978301      -0.046085671220
52 1       3.660090000000       3.218530000000       8.330530000000       0.015308637322      -0.050154675412      -0.046107419723
53 1       5.750850000000       1.486940000000       8.330530000000      -0.015290759879       0.050199391278      -0.046059993668
54 1       5.750850000000       3.218530000000       3.625060000000      -0.015255031294      -0.050146013648      -0.046107497920
55 1       5.785880000000       8.365570000000       3.218530000000       0.046239948035       0.015155459348      -0.050087182546
56 1       5.785880000000       1.045380000000       1.486940000000       0.046188486441      -0.015243500818       0.050131052445
57 1       3.625060000000       1.045380000000       6.192410000000      -0.046094237538      -0.015289873471       0.050188463859
58 1       3.625060000000       8.365570000000       7.924010000000      -0.046088293262       0.015209961227      -0.050245545020
59 1       3.660090000000       6.192410000000       5.785880000000       0.015296221663       0.050163855275       0.046198766485
60 1       3.660090000000       7.924010000000       1.080410000000       0.015299189593      -0.050236752175       0.046142307890
61 1       5.750850000000       7.924010000000       5.785880000000      -0.015258168041      -0.050228843316       0.046163187035
62 1       5.750850000000       6.192410000000       1.080410000000      -0.015273178785       0.050180520719       0.046152294760
63 1       5.785880000000       3.660090000000       6.192410000000       0.046198766485       0.015296221663       0.050163855275
64 1       5.785880000000       5.750850000000       7.924010000000       0.046163187035      -0.015258168041      -0.050228843316
65 1       6.192410000000       1.080410000000       5.750850000000       0.050180520719       0.046152294760      -0.015273178785
66 1       6.192410000000       8.330530000000       8.365570000000       0.050197972259      -0.046098196484       0.015237558678
67 1       6.192410000000       5.785880000000       3.660090000000       0.050163855275       0.046198766485       0.015296221663
68 1       6.192410000000       3.625060000000       1.045380000000       0.050188463859      -0.046094237538      -0.015289873471
69 1       7.924010000000       8.330530000000       1.045380000000      -0.050262109341      -0.046058576221      -0.015305428985
70 1       7.924010000000       5.785880000000       5.750850000000      -0.050228843316       0.046163187035      -0.015258168041
71 1       7.924010000000       3.625060000000       8.365570000000      -0.050245545020      -0.046088293262       0.015209961227
72 1       7.924010000000       1.080410000000       3.660090000000      -0.050236752175       0.046142307890       0.015299189593
73 1       8.330530000000       8.365570000000       6.192410000000      -0.046098196484       0.015237558678       0.050197972259
74 1       8.330530000000       1.045380000000       7.924010000000      -0.046058576221      -0.015305428985      -0.050262109341
75 1       8.365570000000       6.192410000000       8.330530000000       0.015237558678       0.050197972259      -0.046098196484
76 1       8.365570000000       7.924010000000       3.625060000000       0.015209961227      -0.050245545020      -0.046088293262
77 1       1.045380000000       6.192410000000       3.625060000000      -0.015289873471       0.050188463859      -0.046094237538
78 1       1.045380000000       7.924010000000       8.330530000000      -0.015305428985      -0.050262109341      -0.046058576221
79 1       1.080410000000       3.660090000000       7.924010000000       0.046142307890       0.015299189593      -0.050236752175
80 1       1.080410000000       5.750850000000       6.192410000000       0.046152294760      -0.015273178785       0.050180520719
