160
Config_type=bulk_gamma_phase Weight=1.0 Lattice="8.429579690 0.000000000 0.000000000 0.000000000 8.429579690 0.000000000 0.000000000 0.000000000 25.288739071" Energy=-1360.41584020 Virial="-32.64498 0.07289 -19.79954 0.07289 -33.41732 -2.32844 -19.79954 -2.32844 -29.83983" pbc="T T T" Properties=species:S:1:pos:R:3:forces:R:3
Ga	      1.22121      5.23198     22.24354         0.017436      0.012998     -0.010432
Ga	      5.23765      0.85159     13.76474        -0.004169     -0.001952      0.000024
Ga	      7.20642      7.45290      7.43879         0.002506      0.003674     -0.017355
Ga	      7.33738      7.18280     15.87405         0.011945     -0.010888      0.015429
Ga	      5.26228      5.28415      0.98939        -0.012563     -0.013682     -0.003822
Ga	      3.05221      3.22675      7.25709        -0.005670      0.000113      0.004052
Ga	      0.95965      1.05441      1.09566        -0.007680      0.004827     -0.017420
Ga	      5.20481      1.03435      5.27806         0.011095      0.007304      0.000541
Ga	      3.20351      2.98786     15.76002        -0.016432     -0.001079      0.006636
Ga	      5.41934      1.12510     22.05686        -0.014657     -0.002993      0.016213
Ga	      3.16088      7.30197     11.59092        -0.001172     -0.010155      0.004148
Ga	      7.47394      3.21725     19.94476        -0.004332      0.011942     -0.004251
Ga	      1.02668      5.13385     13.57396        -0.000472     -0.020527      0.008700
Ga	      7.37567      3.24379      3.22597        -0.000383     -0.004026      0.014322
Ga	      5.12957      5.36546      9.43474         0.020357      0.000927      0.004434
Ga	      7.40891      7.49087     24.26256         0.002733      0.007858      0.007638
Ga	      3.21530      7.50105     20.06009         0.003858      0.003013      0.007450
Ga	      0.92123      1.08160      9.58868        -0.005652      0.011350     -0.008719
Ga	      3.24710      7.47381      3.12245         0.008344      0.008958     -0.003233
Ga	      1.18755      1.04044     17.93990         0.003727     -0.010621     -0.008761
Ga	      3.95873      0.19099      8.43994         0.016856     -0.030770     -0.004128
Ga	      6.17828      6.15638     12.62248        -0.028684     -0.000993      0.014137
Ga	      2.17564      2.14420     21.08899        -0.010675     -0.015513      0.000156
Ga	      6.45033      6.33878     21.04445         0.019501      0.020706      0.035673
Ga	      1.97677      6.44656      8.34209         0.002601     -0.004632     -0.000805
Ga	      8.37809      2.07679      6.28346         0.010121      0.010913      0.008144
Ga	      2.00933      2.11109      4.25205         0.002270     -0.002777     -0.010385
Ga	      0.05512      2.03063     14.71941        -0.006393     -0.014001     -0.008971
Ga	      0.16322      6.24954     18.92048         0.004688     -0.002928      0.009060
Ga	      6.31065      0.05481      2.11723         0.017882     -0.014703     -0.013483
Ga	      6.13650      0.07192     10.59834        -0.005308      0.005012     -0.009854
Ga	      4.19950      2.21422     18.91778        -0.010775     -0.006155      0.017597
Ga	      6.45405      8.39637     18.97531         0.026414      0.029342      0.007293
Ga	      6.39975      2.05854     16.83910         0.001325      0.010626     -0.012220
Ga	      0.16238      2.07659     23.24035         0.000526      0.017297     -0.021671
Ga	      2.05011      8.22124     14.84574         0.016148     -0.027167     -0.016568
Ga	      4.03461      6.07133     14.75795         0.016680      0.002871     -0.005827
Ga	      6.28328      4.23111      6.35164         0.017215     -0.005707     -0.007946
Ga	      4.24135      6.42655     23.22190         0.003172      0.001696     -0.016360
Ga	      0.09803      4.21695     16.85325        -0.015342     -0.020152      0.026620
Ga	      2.09824      4.26713      2.10625         0.010225     -0.015192     -0.001336
Ga	      4.15681      4.33826     21.01994         0.005883      0.000772     -0.000550
Ga	      4.16810      8.23844     16.91948         0.004369     -0.009767     -0.002019
Ga	      6.35289      4.26768     23.12562         0.014692     -0.000960     -0.000906
Ga	      8.36552      6.25570     10.51146         0.016063      0.011687     -0.008350
Ga	      8.41601      8.35557     12.66964        -0.000917      0.008123      0.003858
Ga	      0.02255      4.30879      0.04485         0.006775     -0.007760     -0.013454
Ga	      6.25433      4.09190     14.72473         0.017230     -0.019331     -0.007552
Ga	      4.17428      4.21767      4.16986         0.019476      0.005864      0.020451
Ga	      2.13879      2.04814     12.57329         0.005519      0.008801      0.006828
Ga	      2.10682      4.14197     10.55275        -0.009417      0.011418     -0.015184
Ga	      0.04153      6.48178      2.20964        -0.021017     -0.002195      0.007830
Ga	      0.20418      8.38857     21.17600        -0.001706      0.003753     -0.010696
Ga	      4.15103      2.04816      1.99719         0.001249      0.008910     -0.004876
Ga	      6.24588      2.06302     25.23940         0.011559     -0.000130      0.010799
Ga	      8.40921      4.16018      8.42808        -0.007034      0.025062     -0.012391
Ga	      6.12313      2.17724      8.53081        -0.004609     -0.011641     -0.001502
Ga	      4.04830      6.46351      6.26624        -0.006869      0.024861      0.005844
Ga	      6.37981      6.46819      4.27195        -0.008726     -0.009288     -0.015800
Ga	      2.19585      6.42531     25.26030        -0.004564      0.002527     -0.015106
Ga	      5.19456      3.14026     11.63441         0.000446     -0.012745     -0.016996
Ga	      3.19758      1.07586     24.21165        -0.012692     -0.003381      0.013223
Ga	      3.18453      5.20726     17.90597        -0.005670      0.002102      0.005351
Ga	      0.99414      7.44817      5.26603         0.002957      0.014888     -0.005235
O	      2.13571      2.15395      2.13257         0.000423      0.001177     -0.002407
O	      6.19396      6.27010      6.28513         0.002082     -0.006661     -0.005973
O	      4.28972      8.35835      6.47062         0.011466     -0.007181     -0.000175
O	      4.33618      0.13014      2.11316        -0.004796     -0.002499      0.003666
O	      8.30639      6.41872      4.14339        -0.003415      0.005376     -0.003865
O	      0.03519      2.20921      4.30327         0.003786     -0.000089     -0.001933
O	      6.23022      4.18913      8.39989        -0.000560     -0.002003      0.016177
O	      1.91060      4.47695      0.24189        -0.002614     -0.000193      0.015181
O	      8.41829      4.38234      2.09300        -0.005193     -0.002830     -0.003909
O	      8.16148      4.03192      6.56518        -0.011428      0.002753      0.014205
O	      4.31803      2.10532      0.05979         0.002860     -0.004851      0.002549
O	      4.04023      6.41744      8.29616         0.006010     -0.002431     -0.001512
O	      2.12257      0.07962      4.19995        -0.000386     -0.005527      0.003173
O	      6.18005      8.37273      4.11486        -0.004128     -0.010049      0.003173
O	      2.11699      6.44775      6.40144         0.005571      0.010755     -0.002677
O	      6.26238      2.13381      2.04269         0.002446     -0.008677      0.012181
O	      4.21259      4.14762      2.11838        -0.005120     -0.002832     -0.001022
O	      4.24870      4.35726      6.20706        -0.004707     -0.005397      0.000173
O	      8.23105      2.11316      8.41998        -0.008156      0.010049     -0.009155
O	      0.04242      6.34550      0.08641        -0.002106     -0.006258     -0.001607
O	      8.28956      0.06573      6.34409        -0.001470     -0.001615     -0.005443
O	      8.28983      8.40163      2.10028         0.007220     -0.001897     -0.003129
O	      4.26560      6.27088      4.26418        -0.011055     -0.000213     -0.019466
O	      4.15099      2.18024      4.13789        -0.013721      0.013511     -0.008016
O	      6.29429      2.17423      6.39088         0.001986      0.001057     -0.010738
O	      2.06640      6.37910      2.08063        -0.008289     -0.002397     -0.000277
O	      2.28809      4.05995      3.96882         0.004203     -0.003042     -0.003289
O	      6.19883      4.34879      4.30069         0.005148     -0.005832      0.004776
O	      6.43132      0.15530      0.11330         0.011802      0.006789     -0.001118
O	      2.05582      8.38203      8.59416         0.004429     -0.004859      0.010824
O	      6.36381      6.39890      2.17201        -0.004870      0.009311      0.000486
O	      1.92357      2.19372      6.20165        -0.004166      0.003380      0.001126
O	      2.01555      2.17106     10.61817        -0.011232      0.015587      0.003380
O	      6.24463      6.15747     14.68121         0.000275     -0.002992     -0.002466
O	      4.13549      8.24336     14.89388         0.006336      0.010534      0.001436
O	      4.24321      8.25087     10.40099         0.008482     -0.007849      0.008145
O	      8.28242      6.32785     12.54536        -0.000388     -0.005738      0.005249
O	      0.18237      1.79898     12.85328        -0.007113      0.005948      0.012652
O	      6.59844      3.92251     16.60680        -0.006364     -0.002207     -0.008683
O	      2.03815      4.33902      8.43709        -0.004309     -0.001042      0.002860
O	      0.13810      4.38167     10.29065        -0.007068      0.014162     -0.002427
O	      0.00799      4.04412     14.76070         0.005510      0.004238      0.005778
O	      4.18374      2.09855      8.26233        -0.011037     -0.013730     -0.006174
O	      4.13621      6.32829     16.73379        -0.004169      0.015144     -0.000333
O	      2.04161      8.38824     12.70180        -0.002259     -0.002302     -0.005833
O	      6.37260      8.26607     12.59831         0.008304      0.005689     -0.009825
O	      2.11658      6.29675     14.58197         0.015765     -0.011394     -0.006222
O	      6.14936      2.00851     10.46508        -0.013745     -0.002259     -0.002429
O	      4.13060      4.26360     10.54534        -0.000492      0.002452      0.007207
O	      4.30474      4.16407     14.84873         0.000404      0.004824      0.011893
O	      0.03141      2.04405     16.75441        -0.002395     -0.003157      0.010413
O	      8.38909      6.33855      8.45926        -0.007181      0.000782     -0.002530
O	      0.04239      8.30963     14.75407         0.008033     -0.003043      0.007074
O	      8.24136      8.29854     10.63876         0.006047      0.000497      0.004218
O	      4.28466      6.39950     12.79397         0.005839      0.007030      0.005068
O	      4.17891      1.95920     12.69626        -0.007502     -0.003634      0.005305
O	      6.41433      1.97561     14.78323        -0.005899     -0.006553     -0.006155
O	      2.00360      6.24210     10.46964         0.006694     -0.004289     -0.000923
O	      2.05113      4.02566     12.50762        -0.015212      0.001411     -0.004660
O	      6.23662      4.22875     12.76865        -0.010886      0.000207      0.002740
O	      6.15101      0.10928      8.56852         0.002794     -0.006334     -0.004203
O	      2.24554      0.05581     16.76670        -0.008501      0.020236      0.002644
O	      6.33027      6.35687     10.58574         0.006248      0.000529      0.014184
O	      2.10833      1.89169     14.67195         0.002377      0.008947     -0.001616
O	      2.28899      2.01147     19.08566         0.001499     -0.011597      0.004087
O	      6.37536      6.35132     23.08621         0.004409      0.004088      0.005634
O	      4.35254      0.03667     23.13585        -0.005560      0.010256      0.001157
O	      4.40091      0.06806     18.90131        -0.009831     -0.002566      0.005452
O	      0.11250      6.38468     21.10535         0.002840     -0.000924     -0.008871
O	      0.11356      2.08734     21.13706        -0.001390      0.010861     -0.009114
O	      6.43456      4.18441     25.19396        -0.004623     -0.006560      0.003961
O	      2.11773      4.06597     16.84094         0.005389      0.000066     -0.003908
O	      0.05422      4.27946     18.82860        -0.003225      0.001458     -0.010840
O	      8.38908      4.16917     23.28646         0.001788      0.002090     -0.001154
O	      4.36881      1.95682     16.93162         0.008906     -0.007096      0.002339
O	      4.17613      6.31770     25.19166         0.002049     -0.002673     -0.005276
O	      2.10791      0.14512     21.06555        -0.004585     -0.009019     -0.005743
O	      6.52353      0.01491     21.00067        -0.007780      0.002922     -0.006830
O	      2.27223      6.33881     23.30853        -0.003275      0.003380     -0.009996
O	      6.33799      2.00928     18.88402        -0.004812      0.007932     -0.006687
O	      4.22762      4.14458     19.07637        -0.008198     -0.004710     -0.008529
O	      4.49621      4.49709     22.90700         0.000717     -0.004962      0.005384
O	      8.36373      2.25681     25.24356         0.010268      0.007804     -0.001216
O	      0.01934      6.17349     16.94870        -0.013673     -0.009721      0.003516
O	      8.34749      0.16147     23.08704        -0.018823      0.002069     -0.002304
O	      0.05938      8.39510     19.04763         0.004972     -0.002657     -0.003748
O	      4.38165      6.39284     21.09145         0.000424      0.005592     -0.000404
O	      4.27474      2.21470     20.97104        -0.000288     -0.005814      0.013708
O	      6.44998      2.25653     23.22954         0.000861      0.007359      0.010472
O	      2.16449      6.35622     19.00233        -0.002029     -0.000875      0.000725
O	      2.23567      4.11399     21.16607         0.015195      0.009518      0.011568
O	      6.41814      4.32206     21.08998        -0.006290     -0.000330     -0.009078
O	      6.28444      0.00629     16.93360         0.003584     -0.008773      0.005040
O	      2.08572      0.01677      0.01744        -0.014375      0.008063      0.005007
O	      6.65732      6.51693     19.17762         0.003158      0.001116      0.014534
O	      2.06953      2.07124     23.08710        -0.008174     -0.011204      0.005079
