ITEM: TIMESTEP
0
ITEM: NUMBER OF ATOMS
30
ITEM: BOX BOUNDS xy xz yz pp pp pp
-2.5318578010000001e+00 5.0637156020000003e+00 -2.5318578010000001e+00
0.0000000000000000e+00 4.3853067670000003e+00 0.0000000000000000e+00
0.0000000000000000e+00 1.3631884907000000e+01 0.0000000000000000e+00
ITEM: ATOMS id type v_vir_xx v_vir_yy v_vir_zz v_vir_xy v_vir_xz v_vir_yz
1 2      -3.513074802286      -3.513079289160      -2.458585818897      -0.000005120530      -0.000001520187       0.000004114663
2 2      -3.513120655310      -3.513178711374      -2.458649928967      -0.000008274457      -0.000000687853      -0.000003676646
3 2      -3.513052747422      -3.513110910387      -2.458621353871      -0.000010036328      -0.000000257169       0.000004876996
4 2      -3.513025849682      -3.513063323931      -2.458541897281      -0.000026208652      -0.000017207854       0.000004088691
5 2      -3.513096721697      -3.513166260251      -2.458763751313      -0.000011138220       0.000015523798       0.000004244357
6 2      -3.513051699411      -3.513065232453      -2.458518082909       0.000002145421      -0.000014078856       0.000011245300
7 2      -3.513141701472      -3.513203811653      -2.458756078800      -0.000020690203       0.000020595322       0.000000265900
8 2      -3.513097801940      -3.513098928666      -2.458611515333       0.000026482951      -0.000014393533       0.000010836471
9 2      -3.513052613533      -3.513060048770      -2.458502397169       0.000007249011       0.000005090625       0.000003621616
10 2      -3.513046268467      -3.513112417958      -2.458664458635       0.000015594154      -0.000017987154       0.000005293211
11 2      -3.513054735611      -3.513063305911      -2.458495358251       0.000007409700       0.000009262834       0.000005984041
12 2      -3.513082555959      -3.513137866635      -2.458659956789       0.000001462117       0.000007613370       0.000003126505
13 1       1.911983950584       2.764506777332       1.672033676210      -0.738252691918       0.594759265249       0.343391523020
14 1       3.190718619772       1.485774549821       1.672033935332       0.000002311649       0.000005650888      -0.686762705936
15 1       1.912020227992       2.764493419778       1.672033415245       0.738280276731      -0.594773131738       0.343373500552
16 1       1.912004368204       2.764485818281       1.672028236013      -0.738278000524       0.594756996875       0.343363512680
17 1       1.911973714477       2.764544444144       1.672030958791       0.738279508064      -0.594757893288       0.343400253852
18 1       3.190707189134       1.485783181805       1.672026082233       0.000024712907      -0.000008287556      -0.686760055325
19 1       1.911992928139       2.764544864454       1.672040077369      -0.738284971195       0.594765408071       0.343393062871
20 1       3.190686626873       1.485773537882       1.672031246068      -0.000029494146       0.000006474283      -0.686749241902
21 1       1.912024384298       2.764482328974       1.672036795295       0.738287338666      -0.594761241797       0.343361007364
22 1       1.912006219126       2.764529138073       1.672033916145      -0.738257757499       0.594761684476       0.343392124637
23 1       1.912027746599       2.764510032120       1.672060307715       0.738297370806      -0.594772783485       0.343375903699
24 1       3.190691632721       1.485786349364       1.672031640717      -0.000010479778       0.000012662769      -0.686757578014
25 1       1.912024424497       2.764514536014       1.672052744818      -0.738290155228       0.594776994227       0.343377950931
26 1       3.190706230548       1.485789155093       1.672027231482       0.000000538021      -0.000010785468      -0.686763252763
27 1       1.911989181341       2.764525604674       1.672026714356       0.738260593980      -0.594753997691       0.343396812353
28 1       1.912014366550       2.764492526349       1.672033448571      -0.738272063439       0.594765112944       0.343377563533
29 1       1.912024468348       2.764510985493       1.672033409183       0.738264203991      -0.594767991392       0.343389095758
30 1       3.190726603552       1.485776241730       1.672042287223       0.000001060266      -0.000008690706      -0.686766555467
