ITEM: TIMESTEP
0
ITEM: NUMBER OF ATOMS
30
ITEM: BOX BOUNDS xy xz yz pp pp pp
-2.5318578010000001e+00 5.0637156020000003e+00 -2.5318578010000001e+00
0.0000000000000000e+00 4.3853067670000003e+00 0.0000000000000000e+00
0.0000000000000000e+00 1.3631884907000000e+01 0.0000000000000000e+00
ITEM: ATOMS id type x y z fx fy fz
1 2       0.000000000000       0.000000000000       1.964200000000       0.000016925542      -0.000012078727      -0.009116682937
2 2      -0.000000000000       2.923540000000       0.307790000000       0.000007438166      -0.000034447776       0.009053600540
3 2       2.531860000000       1.461770000000       2.579760000000      -0.000014528553      -0.000008336028       0.009074860490
4 2      -0.000000000000       2.923540000000       4.236190000000       0.000033307122      -0.000029510835      -0.009117810390
5 2       2.531860000000       1.461770000000       6.508160000000      -0.000042184488      -0.000020249192      -0.009077509386
6 2       0.000000000000       0.000000000000       4.851740000000      -0.000007455921       0.000020385327       0.009123308193
7 2      -0.000000000000       2.923540000000       7.123730000000       0.000043077909      -0.000033953420       0.009073526583
8 2       0.000000000000       0.000000000000       8.780140000000       0.000038850732      -0.000012365039      -0.009115345460
9 2      -0.000000000000       2.923540000000      11.052130000000       0.000000773789      -0.000027399132      -0.009102023550
10 2       2.531860000000       1.461770000000       9.395700000000      -0.000035266429      -0.000005264805       0.009092515372
11 2       0.000000000000       0.000000000000      11.667680000000       0.000022077029       0.000019762642       0.009125968700
12 2       2.531860000000       1.461770000000      13.324100000000      -0.000018863836      -0.000018128134      -0.009056120551
13 1      -0.767260000000       1.328940000000       3.407970000000       0.021704921479      -0.037595471965       0.000059701720
14 1       1.534530000000       0.000000000000       3.407970000000      -0.043425598133      -0.000003620159       0.000030278929
15 1       1.764600000000       3.056370000000       3.407970000000       0.021637331245       0.037597000509       0.000056378526
16 1       3.299120000000       0.132830000000       1.135990000000      -0.021696150781       0.037624798348       0.000034081067
17 1       3.299120000000       2.790700000000       1.135990000000      -0.021727534129      -0.037523528822       0.000046116966
18 1       0.997330000000       1.461770000000       1.135990000000       0.043461997954      -0.000043038673       0.000027400586
19 1       1.764600000000       2.790700000000       7.951930000000       0.021704052674      -0.037527364714       0.000059048549
20 1       4.066390000000       1.461770000000       7.951930000000      -0.043485981248      -0.000048702802       0.000045717873
21 1       1.764600000000       0.132830000000       7.951930000000       0.021663566581       0.037635889425       0.000073531532
22 1       0.767260000000       1.594600000000       5.679960000000      -0.021719591978       0.037568110426      -0.000106975561
23 1       0.767260000000       4.252470000000       5.679960000000      -0.021636761593      -0.037552366797      -0.000094963671
24 1      -1.534530000000       2.923540000000       5.679960000000       0.043461532014       0.000013356590      -0.000098657562
25 1      -0.767260000000       4.252470000000      12.495900000000       0.021658943493      -0.037539988372      -0.000069398011
26 1       1.534530000000       2.923540000000      12.495900000000      -0.043445557944       0.000002693978      -0.000075459001
27 1      -0.767260000000       1.594600000000      12.495900000000       0.021735592429       0.037565904256      -0.000089550148
28 1      -1.764595602000       3.056370000000      10.223910000000      -0.021668866011       0.037596280296       0.000050218087
29 1       0.767260000000       1.328940000000      10.223910000000      -0.021664864460      -0.037594254433       0.000053720282
30 1       3.529190000000       0.000000000000      10.223910000000       0.043398817346      -0.000014111976       0.000040522236
