ITEM: TIMESTEP
0
ITEM: NUMBER OF ATOMS
30
ITEM: BOX BOUNDS xy xz yz pp pp pp
-2.5318578010000001e+00 5.0637156020000003e+00 -2.5318578010000001e+00
0.0000000000000000e+00 4.3853067670000003e+00 0.0000000000000000e+00
0.0000000000000000e+00 1.3631884907000000e+01 0.0000000000000000e+00
ITEM: ATOMS id type c_pe_atom
1 2      -4.300048159809
2 2      -4.299971813614
3 2      -4.300059980810
4 2      -4.300144616440
5 2      -4.299947314906
6 2      -4.300141680583
7 2      -4.299910462701
8 2      -4.300023862873
9 2      -4.300147756668
10 2      -4.300061566130
11 2      -4.300147697108
12 2      -4.300009861660
13 1      -7.034307122750
14 1      -7.034288547312
15 1      -7.034341522281
16 1      -7.034349843737
17 1      -7.034421793460
18 1      -7.034355279820
19 1      -7.034457172960
20 1      -7.034354682710
21 1      -7.034381822639
22 1      -7.034391607853
23 1      -7.034384446330
24 1      -7.034339104855
25 1      -7.034378105631
26 1      -7.034321207228
27 1      -7.034345343900
28 1      -7.034307701364
29 1      -7.034345381255
30 1      -7.034300341764
