160
Config_type=bulk_gamma_phase Weight=1.0 Lattice="8.454524552 0.000000000 0.000000000 0.000000000 8.454524552 0.000000000 0.000000000 0.000000000 25.363573656" Energy=-1360.11657620 Virial="-46.47645 0.00736 -19.76565 0.00736 -47.14101 -2.35141 -19.76565 -2.35141 -43.95830" pbc="T T T" Properties=species:S:1:pos:R:3:forces:R:3
Ga	      1.22518      5.24832     22.31014         0.018987      0.012308     -0.003595
Ga	      5.25396      0.85441     13.80553        -0.006311      0.005593     -0.014710
Ga	      7.22843      7.47561      7.45865         0.008820     -0.004240      0.000460
Ga	      7.35925      7.20314     15.92056         0.006611     -0.003505      0.015415
Ga	      5.27770      5.29830      0.99181        -0.006105     -0.015489     -0.008120
Ga	      3.06031      3.23507      7.27803        -0.002095      0.005161      0.006273
Ga	      0.96309      1.05718      1.09629         0.002542      0.000482     -0.016113
Ga	      5.21988      1.03583      5.29236         0.010889      0.008712      0.009449
Ga	      3.21403      2.99706     15.80868        -0.012043      0.001820      0.009303
Ga	      5.43564      1.12873     22.12397        -0.013926      0.007069      0.001859
Ga	      3.17204      7.32529     11.62566         0.000294     -0.023159      0.005238
Ga	      7.49632      3.23001     20.00368        -0.008603     -0.000641     -0.007607
Ga	      1.03102      5.14838     13.61467        -0.003886     -0.014066      0.002200
Ga	      7.39689      3.25395      3.23588         0.000359      0.008373      0.016604
Ga	      5.14605      5.37899      9.46580         0.008158      0.015213     -0.010988
Ga	      7.43273      7.51516     24.33341        -0.007040      0.007090      0.009314
Ga	      3.22355      7.52298     20.11727         0.002314     -0.005624      0.010038
Ga	      0.92402      1.08366      9.61851         0.006260      0.011598     -0.016420
Ga	      3.25646      7.49655      3.13447        -0.001135      0.010521     -0.012629
Ga	      1.19131      1.04196     17.99275         0.019393     -0.009236     -0.015039
Ga	      3.97454      0.18825      8.46500         0.004473     -0.025722     -0.009488
Ga	      6.19497      6.17583     12.65942        -0.026744     -0.008186      0.018609
Ga	      2.18182      2.14897     21.15179        -0.006113     -0.020866      0.002053
Ga	      6.47066      6.36221     21.11070         0.019730      0.005419      0.022156
Ga	      1.98496      6.46670      8.36755        -0.011286      0.006042     -0.001195
Ga	      8.40025      2.08462      6.30252         0.013285      0.009810     -0.001772
Ga	      2.01489      2.11889      4.26468         0.003973      0.001127     -0.018925
Ga	      0.05837      2.03557     14.76583        -0.009114     -0.010323     -0.004046
Ga	      0.16235      6.26829     18.97542        -0.008204      0.002046      0.003415
Ga	      6.33071      0.05571      2.12263         0.006701     -0.019283     -0.006238
Ga	      6.15463      0.07197     10.62960        -0.001717     -0.002325     -0.010456
Ga	      4.20996      2.21843     18.97507        -0.001244     -0.005746      0.013893
Ga	      6.47354      8.42386     19.03271         0.019704      0.036747      0.003090
Ga	      6.41906      2.06181     16.88701        -0.002441      0.012765     -0.013819
Ga	      0.16286      2.08095     23.30847         0.003122      0.025613     -0.016638
Ga	      2.05938      8.24513     14.88697         0.007214     -0.000204     -0.001649
Ga	      4.04705      6.09036     14.80246         0.018524     -0.001143     -0.008770
Ga	      6.29682      4.24135      6.37402         0.020415      0.009674     -0.021455
Ga	      4.25545      6.44268     23.28916        -0.015538     -0.000156     -0.002117
Ga	      0.09792      4.22676     16.90211        -0.016166     -0.006953      0.020191
Ga	      2.10450      4.28158      2.11308         0.006301     -0.022114     -0.008188
Ga	      4.16784      4.35141     21.08104         0.007721      0.008827      0.008933
Ga	      4.17840      8.26404     16.96905         0.004626     -0.002201      0.002062
Ga	      6.37669      4.28020     23.19103         0.002465     -0.002630     -0.007158
Ga	      8.39191      6.27838     10.54205         0.013658      0.007862     -0.023101
Ga	      8.44093      8.37725     12.71072         0.004264      0.006976     -0.006779
Ga	      0.01993      4.32224      0.04576         0.003622      0.001671     -0.007153
Ga	      6.27273      4.10313     14.76664        -0.001230     -0.019787     -0.008433
Ga	      4.18915      4.22965      4.18118         0.026806     -0.003726      0.010848
Ga	      2.14320      2.05332     12.61114         0.007512      0.011411      0.007625
Ga	      2.11103      4.15667     10.58521        -0.014532      0.007567     -0.015908
Ga	      0.03981      6.50200      2.21581        -0.005245      0.008794      0.004240
Ga	      0.20482      8.41497     21.23634         0.000694     -0.002318     -0.006779
Ga	      4.16154      2.05201      2.00432         0.009290      0.001468     -0.016503
Ga	      6.26568      2.06776     25.31485        -0.003034      0.002740      0.001943
Ga	      8.43512      4.17208      8.45336        -0.000672      0.023671     -0.007761
Ga	      6.13983      2.18207      8.55550        -0.010165     -0.008428     -0.002520
Ga	      4.06140      6.48290      6.28543        -0.006659      0.025640      0.008185
Ga	      6.39768      6.48990      4.28477        -0.001101     -0.025385     -0.006724
Ga	      2.20199      6.44419     25.33578        -0.004828     -0.004441     -0.015589
Ga	      5.20728      3.14829     11.66733        -0.004729     -0.020417      0.003159
Ga	      3.20809      1.07597     24.28245        -0.015302     -0.006182      0.019433
Ga	      3.19200      5.22205     17.95860        -0.019790      0.015728     -0.000259
Ga	      0.99727      7.47467      5.28198         0.000701      0.002437     -0.004625
O	      2.14223      2.15885      2.13689        -0.003546      0.002682      0.002910
O	      6.21373      6.28689      6.30286         0.002366     -0.004991     -0.006216
O	      4.30958      8.37953      6.49060         0.012398     -0.006945      0.001384
O	      4.35015      0.13133      2.12665        -0.004324     -0.002723      0.002700
O	      8.32833      6.44902      4.15311        -0.000951      0.001975      0.000674
O	      0.03760      2.22411      4.31856        -0.003761     -0.000459     -0.004935
O	      6.24476      4.19840      8.42679        -0.001372     -0.005436      0.006859
O	      1.90870      4.49603      0.24976         0.001521     -0.007985      0.010873
O	      8.44157      4.39615      2.10079        -0.007138      0.001166     -0.005269
O	      8.17648      4.03945      6.59221        -0.005549      0.005517      0.007814
O	      4.33382      2.10070      0.06316         0.000579     -0.004222      0.002921
O	      4.05322      6.43355      8.32086         0.007711     -0.004509     -0.000223
O	      2.12852      0.07979      4.21304         0.000634     -0.000881      0.003054
O	      6.19497      8.39594      4.12596        -0.005667     -0.004327      0.002685
O	      2.12612      6.47809      6.42354         0.003304      0.010164     -0.007357
O	      6.28108      2.13795      2.05007         0.003435     -0.008301      0.004776
O	      4.22621      4.15850      2.12269        -0.005136     -0.002247      0.005862
O	      4.25996      4.36984      6.22391        -0.003806     -0.006406      0.003695
O	      8.25623      2.11936      8.44710        -0.007591      0.008588     -0.001034
O	      0.04113      6.36468      0.08468        -0.001594     -0.006833     -0.004937
O	      8.31405      0.06610      6.36264        -0.000443      0.005745     -0.002129
O	      8.31436      8.42527      2.09934         0.002891      0.000632     -0.000969
O	      4.27679      6.28848      4.27814        -0.005003     -0.000715     -0.008162
O	      4.16206      2.18693      4.15229        -0.005441      0.005626     -0.007973
O	      6.31278      2.17915      6.40739         0.004897      0.000909     -0.009019
O	      2.07203      6.39986      2.08784        -0.006502      0.001633      0.003376
O	      2.30181      4.06752      3.97407        -0.002392     -0.000397     -0.001469
O	      6.21691      4.36165      4.31510         0.002798     -0.002991      0.001299
O	      6.45648      0.15816      0.11338         0.003650      0.004948     -0.000647
O	      2.06795      8.40557      8.62953        -0.001186     -0.006473      0.012495
O	      6.38179      6.41981      2.17789        -0.000287      0.005945      0.001838
O	      1.92507      2.20819      6.21707        -0.003393      0.002210      0.002858
O	      2.01138      2.18129     10.65357        -0.004875      0.014879     -0.001915
O	      6.26315      6.17446     14.72458         0.006074     -0.003000      0.001304
O	      4.14897      8.26906     14.93856         0.003612      0.007883      0.004744
O	      4.26002      8.26869     10.43021         0.010719     -0.007042      0.009787
O	      8.30710      6.34643     12.58175        -0.001946     -0.005266      0.006108
O	      0.18736      1.79676     12.89977        -0.009186     -0.000968      0.017786
O	      6.62357      3.92665     16.64759        -0.002760     -0.008288     -0.000001
O	      2.04409      4.35133      8.46015        -0.004892     -0.004136      0.000334
O	      0.14196      4.40351     10.31438        -0.001068      0.005324      0.005544
O	      0.01075      4.05455     14.80222         0.009135      0.004853      0.009317
O	      4.19709      2.09976      8.27814        -0.013789     -0.013326     -0.004549
O	      4.13869      6.35082     16.78242        -0.007669      0.009949      0.005628
O	      2.04923      8.41421     12.73730        -0.002112     -0.000350     -0.000470
O	      6.39254      8.29196     12.63430         0.006742      0.003079     -0.003621
O	      2.12641      6.31765     14.61744         0.015503     -0.018952     -0.003628
O	      6.15771      2.01191     10.49268        -0.008033     -0.002497     -0.000413
O	      4.14298      4.27515     10.57692        -0.002139      0.003979      0.006582
O	      4.31896      4.18020     14.90265         0.003517      0.004150      0.007153
O	      0.03291      2.04938     16.80356        -0.005130     -0.004607      0.007388
O	      8.41603      6.36106      8.48402        -0.000957      0.008344     -0.005260
O	      0.04583      8.33026     14.79939         0.011763      0.000417      0.003372
O	      8.26591      8.32379     10.67346         0.004753     -0.000630      0.001735
O	      4.29971      6.42471     12.83362         0.006625      0.006314      0.006519
O	      4.19329      1.96484     12.73437        -0.006337      0.000052      0.000466
O	      6.43408      1.97948     14.82619        -0.000092     -0.005380     -0.000010
O	      2.01153      6.26006     10.50364         0.005937     -0.004545     -0.005578
O	      2.04903      4.03495     12.54188        -0.009626      0.005987     -0.000164
O	      6.24456      4.24410     12.80819        -0.011301     -0.006249     -0.003709
O	      6.17219      0.11024      8.59371        -0.001202     -0.010901      0.004846
O	      2.25330      0.06304     16.81192        -0.001239      0.015160      0.008189
O	      6.35098      6.37472     10.61809         0.000947     -0.005793      0.014775
O	      2.11798      1.89905     14.71473         0.000683      0.012918      0.003920
O	      2.29708      2.01098     19.14301         0.001011     -0.005397      0.000097
O	      6.39463      6.37241     23.15426         0.007919      0.003008      0.002143
O	      4.36469      0.03799     23.20249        -0.002852      0.003070      0.003291
O	      4.41382      0.06648     18.95560        -0.009484     -0.000155      0.001854
O	      0.11519      6.40619     21.17061         0.002493     -0.000210     -0.009329
O	      0.11599      2.09573     21.19768         0.000788      0.005786      0.000044
O	      6.45393      4.19569     25.26729        -0.001922      0.000315      0.007843
O	      2.12465      4.07693     16.89137         0.006643      0.008587     -0.001807
O	      0.04702      4.29551     18.88077         0.000999     -0.008037     -0.004289
O	      8.41501      4.18089     23.35605         0.000827      0.000862      0.005699
O	      4.38358      1.96350     16.98405         0.003641     -0.006300      0.000877
O	      4.18667      6.32743     25.26273         0.006551      0.000150      0.003705
O	      2.11098      0.14528     21.12111        -0.001300     -0.014424     -0.008095
O	      6.54243      0.01907     21.06201        -0.014999     -0.000085     -0.003219
O	      2.28250      6.35021     23.38130        -0.003363      0.000647     -0.016175
O	      6.35670      2.01633     18.93812        -0.000848      0.006711     -0.006274
O	      4.22990      4.15341     19.13540        -0.003201     -0.005182     -0.011545
O	      4.51845      4.51388     22.96774         0.006430      0.001699      0.000538
O	      8.38955      2.26405     25.31637         0.012073      0.009121     -0.005084
O	      0.01046      6.18725     17.00066        -0.008930     -0.012502      0.001737
O	      8.36432      0.16475     23.14997        -0.009889      0.001465      0.008194
O	      0.05885      8.42044     19.10093         0.009217     -0.002632     -0.003781
O	      4.39249      6.41219     21.15232         0.005428      0.006880     -0.000681
O	      4.28696      2.22043     21.03337        -0.001860     -0.004185      0.006710
O	      6.46831      2.26515     23.29960        -0.002665      0.002940      0.003183
O	      2.17046      6.37409     19.05701        -0.000967      0.002422      0.006805
O	      2.24558      4.12318     21.23926         0.008176      0.003940      0.007133
O	      6.44175      4.33902     21.15137        -0.004552     -0.001596     -0.009253
O	      6.30254      0.00518     16.98516         0.010180     -0.009531     -0.000534
O	      2.09204      0.01708      0.01568        -0.014880      0.008998      0.005640
O	      6.68253      6.54343     19.24317         0.001667      0.003966      0.014359
O	      2.07305      2.06708     23.15365        -0.007521     -0.016067      0.009587
