ITEM: TIMESTEP
0
ITEM: NUMBER OF ATOMS
40
ITEM: BOX BOUNDS pp pp pp
0.0000000000000000e+00 8.8373397189999991e+00
0.0000000000000000e+00 5.1462603380000003e+00
0.0000000000000000e+00 9.4562131730000001e+00
ITEM: ATOMS id type x y z fx fy fz
1 2       1.384760000000       1.594410000000       8.399430000000      -0.087783545867       0.031805750109      -0.015347097501
2 2       3.143410000000       4.167540000000       8.399440000000       0.087823387132       0.031789880137      -0.015462530084
3 2       5.822040000000       0.907630000000       7.553600000000       0.104297134551      -0.154622604945      -0.002529504135
4 2       7.543470000000       3.480760000000       7.553610000000      -0.104526448949      -0.154565906593      -0.002637737660
5 2       4.760530000000       3.485910000000       5.637660000000      -0.113641317951       0.032778194517       0.123611612001
6 2       1.483530000000       3.532860000000       5.764330000000      -0.090839879835       0.076133006477      -0.189928295088
7 2       3.044630000000       0.959730000000       5.764330000000       0.090924712759       0.076118055471      -0.189935133039
8 2       8.604980000000       0.912780000000       5.637670000000       0.113565420679       0.032733811453       0.123447532947
9 2       1.403420000000       1.665150000000       2.825520000000       0.101656458151       0.154906629588      -0.000724946708
10 2       3.124760000000       4.238280000000       2.825520000000      -0.101755427928       0.154881605488      -0.000718297406
11 2       5.802490000000       0.979380000000       3.671320000000      -0.088078533503      -0.032370594895      -0.014404505279
12 2       7.563020000000       3.552510000000       3.671320000000       0.088080949363      -0.032392428381      -0.014437479903
13 2       4.187220000000       1.660900000000       0.909780000000       0.112800268410      -0.033644119365       0.121864158838
14 2       5.902030000000       4.186510000000       1.035900000000      -0.090934270952      -0.074895023174      -0.188305406481
15 2       7.463490000000       1.613380000000       1.035900000000       0.090834797227      -0.074913433850      -0.188258834056
16 2       0.340950000000       4.234030000000       0.909780000000      -0.112739904910      -0.033610356214       0.121930842044
17 1       7.378970000000       1.789110000000       4.454520000000       0.001383335176      -0.080388838595      -0.087645048023
18 1       0.041170000000       0.782350000000       0.049420000000       0.016429776706       0.071613998605       0.160722261283
19 1       7.409330000000       0.090920000000       6.987420000000       0.089839921103       0.052789889909      -0.127287863330
20 1       7.333760000000       4.996220000000       2.139680000000      -0.014069988619       0.130887636002       0.011438041255
21 1       5.986540000000       4.362240000000       4.454520000000      -0.001362702572      -0.080357118694      -0.087683960563
22 1       7.492360000000       3.365260000000       9.437980000000       0.074024230245       0.025328675300       0.129985612710
23 1       5.956170000000       2.664050000000       6.987420000000      -0.089703517772       0.052872751797      -0.127257691761
24 1       6.031760000000       2.423090000000       2.139680000000       0.014013521566       0.130902929110       0.011443314171
25 1       1.454030000000       1.780710000000       4.710070000000      -0.075510397803      -0.025708420445       0.129353324045
26 1       2.961190000000       0.784690000000       9.182940000000       0.000586859869       0.080384986973      -0.088489309403
27 1       1.614540000000       0.149020000000       6.868700000000       0.008920901577      -0.128875483865       0.012799534357
28 1       1.537570000000       5.054970000000       2.259460000000      -0.092502728696      -0.053185857585      -0.127703477943
29 1       0.068960000000       4.364550000000       4.777770000000      -0.017132361911      -0.073262307676       0.160703904881
30 1       1.566980000000       3.357820000000       9.182940000000      -0.000619358159       0.080355597684      -0.088460806494
31 1       0.151520000000       2.449520000000       6.938050000000       0.055069426266      -0.041464385003      -0.002982990801
32 1       8.794970000000       2.696290000000       2.210260000000      -0.053642191051       0.041710323687      -0.004992436402
33 1       4.459210000000       1.791420000000       4.777780000000       0.017142447448      -0.073386295807       0.160611423001
34 1       5.873150000000       0.792130000000       9.437980000000      -0.074004214473       0.025328613084       0.129931674474
35 1       4.376640000000       5.022640000000       6.938050000000      -0.054965161552      -0.041326935368      -0.002957526666
36 1       4.570540000000       0.123160000000       2.210260000000       0.053751624342       0.041752373973      -0.004990742817
37 1       3.074140000000       4.353830000000       4.710070000000       0.075501673147      -0.025615888130       0.129342054367
38 1       4.487000000000       3.355480000000       0.049420000000      -0.016356638208       0.071618900862       0.160799710960
39 1       2.913620000000       2.722150000000       6.868700000000      -0.008965975866      -0.128914700664       0.012838368572
40 1       2.990610000000       2.481840000000       2.259460000000       0.092487720858      -0.053192910976      -0.127681748363
