40
Config_type=bulk_kappa_phase Weight=1.0 Lattice="8.837339719 0.000000000 0.000000000 0.000000000 5.146260338 0.000000000 0.000000000 0.000000000 9.456213173" Energy=-340.51019780 Virial="-5.28084 -0.00120 -0.00580 -0.00120 -5.79485 0.01444 -0.00580 0.01444 -5.04824" pbc="T T T" Properties=species:S:1:pos:R:3:forces:R:3
Ga	      1.38476      1.59441      8.39943        -0.003521     -0.005682     -0.000549
Ga	      3.14341      4.16754      8.39944         0.003765     -0.005310     -0.001684
Ga	      5.82204      0.90763      7.55360         0.002303     -0.003408     -0.008361
Ga	      7.54347      3.48076      7.55361        -0.003162     -0.002839     -0.007983
Ga	      4.76053      3.48591      5.63766        -0.003472     -0.002715     -0.001870
Ga	      1.48353      3.53286      5.76433         0.009875      0.013657     -0.010222
Ga	      3.04463      0.95973      5.76433        -0.009813      0.015020     -0.010222
Ga	      8.60498      0.91278      5.63767         0.002043     -0.002465     -0.000959
Ga	      1.40342      1.66515      2.82552         0.001993      0.003530     -0.007247
Ga	      3.12476      4.23828      2.82552        -0.001621      0.003586     -0.007010
Ga	      5.80249      0.97938      3.67132        -0.004992      0.005935      0.000975
Ga	      7.56302      3.55251      3.67132         0.005344      0.005466      0.000654
Ga	      4.18722      1.66090      0.90978         0.002202      0.000926     -0.000482
Ga	      5.90203      4.18651      1.03590         0.009349     -0.013390     -0.010508
Ga	      7.46349      1.61338      1.03590        -0.009251     -0.014386     -0.010049
Ga	      0.34095      4.23403      0.90978        -0.000815      0.001655     -0.000099
O	      7.37897      1.78911      4.45452         0.006494     -0.009384     -0.002655
O	      0.04117      0.78235      0.04942         0.002586      0.002914      0.012829
O	      7.40933      0.09092      6.98742        -0.007646     -0.003705      0.003473
O	      7.33376      4.99622      2.13968         0.000093     -0.013045     -0.000230
O	      5.98654      4.36224      4.45452        -0.006781     -0.009599     -0.002279
O	      7.49236      3.36526      9.43798         0.003485     -0.007541      0.002539
O	      5.95617      2.66405      6.98742         0.007711     -0.004326      0.004188
O	      6.03176      2.42309      2.13968        -0.000642     -0.012780     -0.000540
O	      1.45403      1.78071      4.71007        -0.003384      0.008199      0.001627
O	      2.96119      0.78469      9.18294         0.004614      0.008615     -0.002921
O	      1.61454      0.14902      6.86870        -0.002161      0.014061      0.000814
O	      1.53757      5.05497      2.25946         0.006616      0.005696      0.004058
O	      0.06896      4.36455      4.77777        -0.005468     -0.004583      0.011493
O	      1.56698      3.35782      9.18294        -0.003865      0.008775     -0.003151
O	      0.15152      2.44952      6.93805        -0.006038      0.000967      0.003767
O	      8.79497      2.69629      2.21026         0.005423     -0.001207      0.002781
O	      4.45921      1.79142      4.77778         0.005390     -0.004880      0.011101
O	      5.87315      0.79213      9.43798        -0.003148     -0.007524      0.002623
O	      4.37664      5.02264      6.93805         0.006136      0.000787      0.003528
O	      4.57054      0.12316      2.21026        -0.006325     -0.000781      0.003424
O	      3.07414      4.35383      4.71007         0.003073      0.008141      0.001835
O	      4.48700      3.35548      0.04942        -0.002176      0.002412      0.012972
O	      2.91362      2.72215      6.86870         0.002412      0.013903      0.000863
O	      2.99061      2.48184      2.25946        -0.006629      0.005306      0.003478
