ITEM: TIMESTEP
0
ITEM: NUMBER OF ATOMS
160
ITEM: BOX BOUNDS pp pp pp
0.0000000000000000e+00 8.3665628919999993e+00
0.0000000000000000e+00 8.3665628919999993e+00
0.0000000000000000e+00 2.5099688678000000e+01
ITEM: ATOMS id type x y z fx fy fz
1 2       1.212680000000       5.194830000000      22.071800000000      -0.057660201696       0.075173042852      -0.055652287669
2 2       5.195060000000       0.844600000000      13.662080000000      -0.181540319462      -0.029535479625      -0.023275125712
3 2       7.150220000000       7.396890000000       7.383760000000      -0.136995974850       0.118810931715      -0.052593732903
4 2       7.280970000000       7.126980000000      15.757650000000       0.006181583468      -0.062148882918       0.057229821319
5 2       5.217400000000       5.246170000000       0.982280000000       0.107451771984       0.258706693814      -0.056518985199
6 2       3.027340000000       3.200650000000       7.203950000000      -0.005508495713      -0.168125425289      -0.000706914533
7 2       0.951020000000       1.048140000000       1.090230000000      -0.123754797744      -0.005116867258       0.001095348968
8 2       5.165340000000       1.031630000000       5.238630000000       0.017260439694       0.102878244716       0.011919480990
9 2       3.179010000000       2.962320000000      15.637110000000      -0.088153656038       0.034398825060      -0.012147914816
10 2       5.379240000000       1.114980000000      21.894800000000      -0.090143487869       0.046418268099       0.050009169101
11 2       3.133760000000       7.244540000000      11.505730000000      -0.034596503097      -0.005697839016      -0.010691346914
12 2       7.415560000000       3.192650000000      19.795950000000       0.142981142225      -0.169717678913      -0.061224525643
13 2       1.015940000000       5.093690000000      13.475250000000       0.068047461329       0.070244813294      -0.022734540972
14 2       7.319700000000       3.217810000000       3.201730000000      -0.087290712440      -0.264627065108       0.055219469073
15 2       5.094220000000       5.330880000000       9.362780000000      -0.114870400956       0.111942350268       0.038373360331
16 2       7.351490000000       7.432210000000      24.083780000000      -0.028434384282      -0.127105995509       0.026057030911
17 2       3.193230000000       7.444270000000      19.913920000000      -0.152226318929      -0.032613767030       0.050486530593
18 2       0.913220000000       1.076650000000       9.512090000000       0.136008529147       0.026945525355       0.011511671309
19 2       3.225000000000       7.417190000000       3.091490000000       0.090304927586       0.027256637396      -0.036022925962
20 2       1.175420000000       1.034310000000      17.807120000000      -0.081922681370       0.033649759383       0.033396196930
21 2       3.926550000000       0.189400000000       8.378740000000       0.223898630085      -0.192411499426       0.025162205209
22 2       6.134120000000       6.109560000000      12.526470000000       0.024088766411      -0.081408649230      -0.041595157745
23 2       2.160890000000       2.132100000000      20.931570000000       0.030428797399      -0.094200966166      -0.003764839600
24 2       6.399580000000       6.288370000000      20.883490000000      -0.011191931552      -0.272029616128       0.057656312505
25 2       1.962020000000       6.392170000000       8.278290000000      -0.099185380469       0.048952966673      -0.019908836959
26 2       8.317740000000       2.059870000000       6.237130000000       0.225590737377       0.001914222558      -0.228186039738
27 2       1.989320000000       2.092530000000       4.217500000000      -0.116807616164       0.083357620505       0.162203339199
28 2       0.049360000000       2.012280000000      14.603200000000       0.071654477730       0.326621842509       0.081055862982
29 2       0.165180000000       6.199220000000      18.780870000000       0.043734700837      -0.098842186101      -0.134813729869
30 2       6.266950000000       0.055180000000       2.101210000000      -0.005617609312      -0.017193503553      -0.042205984083
31 2       6.093250000000       0.075610000000      10.520870000000      -0.003902790936      -0.010381782773       0.079116583747
32 2       4.173240000000       2.196020000000      18.777120000000       0.059546621602      -0.033108046111      -0.219139840679
33 2       6.405610000000       8.328190000000      18.831630000000       0.134806975664       0.088811021817      -0.094453479602
34 2       6.349610000000       2.049670000000      16.715290000000      -0.043822686653      -0.002115983776       0.259427453061
35 2       0.159740000000       2.066930000000      23.061220000000      -0.011237738477       0.095205110573       0.251088984564
36 2       2.032990000000       8.152470000000      14.735420000000      -0.162629854996       0.006453011350      -0.058974854230
37 2       4.009720000000       6.020850000000      14.648570000000       0.189810983998       0.157518992760       0.012068205150
38 2       6.245270000000       4.203360000000       6.299220000000      -0.057195617364      -0.012821687409      -0.234488015136
39 2       4.206370000000       6.382140000000      23.046370000000      -0.088000120458      -0.047176366797       0.213966763011
40 2       0.095330000000       4.184720000000      16.731060000000       0.071249300272       0.030317809882       0.222545317007
41 2       2.086090000000       4.236100000000       2.090280000000      -0.009942555717      -0.017129904946       0.006092054574
42 2       4.132150000000       4.301190000000      20.863700000000       0.066175546831      -0.019596713722       0.079596291081
43 2       4.141200000000       8.173900000000      16.793630000000       0.054943556181       0.004189910974       0.156429094331
44 2       6.298150000000       4.238470000000      22.962340000000       0.062715016246      -0.170027958474       0.091119502049
45 2       8.301950000000       6.203160000000      10.436770000000      -0.021922142536       0.056434544203       0.268547268619
46 2       8.351390000000       8.298360000000      12.573170000000       0.009489106792      -0.126091922133      -0.329432910762
47 2       0.030580000000       4.272410000000       0.040670000000      -0.101133136303       0.051445087056      -0.166836214740
48 2       6.212560000000       4.059340000000      14.614060000000       0.125312544195       0.154232239742      -0.037963404666
49 2       4.133530000000       4.188390000000       4.150310000000       0.094022792575      -0.063917686731       0.193359469888
50 2       2.124970000000       2.034880000000      12.476670000000      -0.048201034711       0.205919534917      -0.142142404139
51 2       2.093530000000       4.108650000000      10.472050000000      -0.076269840987      -0.177380341849       0.145676654619
52 2       0.041220000000       6.425760000000       2.194480000000       0.150535060418       0.053399994221      -0.063683899016
53 2       0.203260000000       8.325000000000      21.019060000000       0.015165554049      -0.231833096511      -0.123447037758
54 2       4.121370000000       2.038610000000       1.983800000000      -0.204351802195      -0.035119371849       0.009572619259
55 2       6.198860000000       2.053680000000      25.053040000000       0.031759708549       0.027153384082      -0.239603273773
56 2       8.343620000000       4.137410000000       8.363560000000       0.005777121267      -0.055234179954      -0.015029996006
57 2       6.079210000000       2.164810000000       8.468600000000      -0.051515644035       0.120566679927      -0.058462635385
58 2       4.015450000000       6.417600000000       6.215830000000       0.041431275725      -0.034357435347      -0.116342726807
59 2       6.332460000000       6.415380000000       4.236310000000      -0.041001032374      -0.033900458797       0.213136192568
60 2       2.179280000000       6.377140000000      25.066250000000       0.131736561210      -0.038504787548      -0.139614785727
61 2       5.162810000000       3.119030000000      11.548140000000      -0.105827269707      -0.073987624260      -0.008229831716
62 2       3.172640000000       1.075950000000      24.032340000000       0.068681385317      -0.039928147352      -0.020748616971
63 2       3.167110000000       5.164570000000      17.772650000000      -0.072345443516       0.062496671914       0.003519566449
64 2       0.987330000000       7.388240000000       5.223160000000      -0.004554253656       0.055936646003       0.027802608609
65 1       2.117840000000       2.143620000000       2.118230000000       0.159780587883      -0.028798943482      -0.120300496372
66 1       6.141240000000       6.226770000000       6.239360000000       0.078889881988      -0.047796402360      -0.062569579725
67 1       4.241870000000       8.304900000000       6.418310000000      -0.037270260762       0.147858203536       0.116269254306
68 1       4.302740000000       0.128030000000       2.079640000000       0.029382553308      -0.053847848187       0.035351702762
69 1       8.249440000000       6.349140000000       4.117720000000       0.064151255495      -0.032321771881       0.101963182070
70 1       0.027500000000       2.172340000000       4.265950000000       0.034039703103       0.024059248767       0.067877856636
71 1       6.192740000000       4.164410000000       8.337190000000       0.142237320841      -0.170828692234       0.039696422381
72 1       1.914050000000       4.430350000000       0.223740000000      -0.025069926116       0.173997181884      -0.013120952410
73 1       8.357110000000       4.346750000000       2.074120000000       0.103784293468       0.025855783246      -0.059955367080
74 1       8.119370000000       4.015550000000       6.499470000000      -0.057984946536      -0.153922319698      -0.001662164490
75 1       4.280270000000       2.113690000000       0.054510000000      -0.080697080389       0.011017652095      -0.055444158755
76 1       4.011710000000       6.377240000000       8.235440000000       0.011148280754       0.100356286705      -0.113792704959
77 1       2.109820000000       0.081680000000       4.165720000000       0.011810690790       0.002412694325      -0.051005488981
78 1       6.143190000000       8.314390000000       4.085680000000      -0.007050954411       0.100992678996      -0.099938452071
79 1       2.095740000000       6.378770000000       6.345860000000      -0.088677480073      -0.012738237996      -0.079395349305
80 1       6.215310000000       2.122150000000       2.028260000000       0.067311771744       0.057396566057       0.061165847863
81 1       4.177550000000       4.118980000000       2.108400000000      -0.100459209196      -0.035602906003       0.044736483052
82 1       4.216930000000       4.324660000000       6.166490000000      -0.065386890030       0.008685229823      -0.028454009709
83 1       8.166200000000       2.099700000000       8.350220000000       0.012223793702       0.043479307434       0.043717616786
84 1       0.044640000000       6.297040000000       0.090120000000       0.071267508366      -0.038232506879      -0.083728631643
85 1       8.226210000000       0.066910000000       6.295200000000       0.005412437975       0.040387196399       0.006295284542
86 1       8.232070000000       8.340380000000       2.101390000000      -0.032443905548       0.049881974973      -0.018061121499
87 1       4.234540000000       6.226190000000       4.226760000000      -0.131731977417       0.036076625464       0.150305897345
88 1       4.118900000000       2.166620000000       4.102830000000      -0.053426502301       0.044720273154       0.055132330885
89 1       6.245790000000       2.162880000000       6.345560000000      -0.032333590881      -0.022526774839      -0.034061833816
90 1       2.051510000000       6.325500000000       2.061690000000      -0.100686946752       0.029389667286       0.135313104682
91 1       2.252050000000       4.040320000000       3.955440000000       0.040298193526      -0.176368151759       0.028407377505
92 1       6.152110000000       4.316190000000       4.266960000000       0.017963352423       0.027277550078      -0.034035438264
93 1       6.372460000000       0.151930000000       0.112500000000       0.029323719736      -0.082564091873       0.112861372798
94 1       2.030980000000       8.317770000000       8.513740000000       0.032450627742       0.069951300508      -0.044387536345
95 1       6.315500000000       6.347850000000       2.155490000000      -0.071587075912      -0.058084695397      -0.031367314122
96 1       1.914990000000       2.157380000000       6.161160000000       0.007043945799       0.023611694879       0.035800082392
97 1       2.020110000000       2.148760000000      10.529470000000      -0.039756063465      -0.011650758280       0.007118539879
98 1       6.194640000000       6.115220000000      14.569550000000      -0.126987380067       0.015923136113       0.001633853492
99 1       4.103910000000       8.177150000000      14.780840000000       0.036905984536      -0.071563915073       0.164100012854
100 1       4.205320000000       8.202840000000      10.330040000000      -0.154673760777       0.044268167041      -0.112989460386
101 1       8.221660000000       6.280490000000      12.457160000000       0.038025075382      -0.005258069227      -0.061145635406
102 1       0.167930000000       1.803620000000      12.736970000000       0.181022033975      -0.061383042559       0.032492010380
103 1       6.531450000000       3.911720000000      16.498940000000       0.075431162956      -0.097420103270       0.016230452860
104 1       2.023690000000       4.309550000000       8.378350000000      -0.030092908789      -0.004438680720      -0.062504160256
105 1       0.127180000000       4.331870000000      10.228860000000       0.192387237998       0.050420632245       0.027456845392
106 1       0.000120000000       4.015000000000      14.656740000000      -0.131581441678      -0.248272412429      -0.124522386463
107 1       4.149600000000       2.090720000000       8.219560000000      -0.046671777249      -0.048048676389       0.031314348239
108 1       4.128990000000       6.272910000000      16.613030000000      -0.045840772129      -0.108848658415      -0.058987054142
109 1       2.022920000000       8.323320000000      12.612110000000      -0.007319953780      -0.019174570553      -0.014505143830
110 1       6.323210000000       8.202990000000      12.506380000000       0.044651186861       0.147736246637      -0.081522126497
111 1       2.097060000000       6.240610000000      14.491320000000       0.045891212419      -0.042891645948       0.032598646781
112 1       6.125610000000       1.999910000000      10.392690000000       0.012804691318       0.084647135596       0.089748276161
113 1       4.099300000000       4.234360000000      10.466730000000      -0.025711064147       0.031445548085      -0.053083699058
114 1       4.271430000000       4.122970000000      14.716280000000      -0.060615488468      -0.036977800435      -0.005117495724
115 1       0.026320000000       2.030810000000      16.631050000000       0.020880001541       0.059347688209      -0.009514226309
116 1       8.320970000000       6.282980000000       8.396380000000       0.152973081252      -0.146211330337      -0.027019962879
117 1       0.036070000000       8.254170000000      14.642580000000       0.272243571643       0.032806928304       0.019930653387
118 1       8.180880000000       8.235770000000      10.554990000000       0.001341051436       0.073533085658       0.019307717890
119 1       4.247140000000       6.337330000000      12.695180000000      -0.128116108851      -0.028429511213       0.078364273108
120 1       4.142970000000       1.944210000000      12.599020000000       0.021261945157       0.006359369070       0.004020904300
121 1       6.364790000000       1.963090000000      14.672400000000       0.029127491817       0.056353905128      -0.008237650603
122 1       1.984840000000       6.195730000000      10.388910000000       0.052890399825       0.003315676180       0.048549117285
123 1       2.052250000000       4.001020000000      12.420420000000      -0.033842285592      -0.031379188308       0.067271971317
124 1       6.213870000000       4.192290000000      12.667400000000       0.010721016563      -0.092796701328      -0.104019021430
125 1       6.099190000000       0.108150000000       8.502700000000      -0.079933955215      -0.038262737182       0.118592240725
126 1       2.224820000000       0.042200000000      16.648130000000      -0.102494902861       0.008571105258       0.035806517293
127 1       6.282080000000       6.314120000000      10.506640000000       0.072230962952      -0.056232536042       0.007204979213
128 1       2.086630000000       1.872350000000      14.560390000000      -0.036060293879      -0.008581510687       0.015407963314
129 1       2.268370000000       2.007480000000      18.942290000000      -0.075335657644      -0.028513401130       0.088019817003
130 1       6.327680000000       6.299620000000      22.915360000000      -0.037058966254       0.089880472682       0.021726155195
131 1       4.319770000000       0.032160000000      22.965590000000       0.005890172168       0.019433069876       0.036650790750
132 1       4.368190000000       0.072280000000      18.766160000000      -0.034185080713      -0.095810179879      -0.163428661331
133 1       0.106960000000       6.331950000000      20.939730000000       0.100564717928       0.253759144334      -0.013350017204
134 1       0.108080000000       2.071570000000      20.979030000000      -0.037887185947       0.036722024074      -0.014742568953
135 1       6.385430000000       4.154070000000      25.009790000000       0.013580764750      -0.029905964388       0.055228436751
136 1       2.099860000000       4.034000000000      16.712120000000       0.005494814562      -0.037370762595       0.053813695658
137 1       0.071090000000       4.239880000000      18.693860000000      -0.035242094603       0.040302460465       0.007146011472
138 1       8.325790000000       4.142650000000      23.107900000000       0.042221586370       0.001324633809       0.050619481374
139 1       4.334120000000       1.936240000000      16.800030000000      -0.002550083303       0.071671509649       0.152694483446
140 1       4.148990000000       6.290730000000      25.006690000000      -0.070995592513      -0.038794897575       0.002254404954
141 1       2.098820000000       0.144080000000      20.924400000000       0.039588742625       0.110835238877      -0.005145253579
142 1       6.476230000000       0.008550000000      20.845480000000       0.038890255402      -0.069029292572      -0.191732752461
143 1       2.247100000000       6.310940000000      23.123070000000      -0.056860741110      -0.007816140886      -0.115079159060
144 1       6.290930000000       1.993700000000      18.746860000000      -0.078453092359       0.058166910313       0.016510114041
145 1       4.219480000000       4.116500000000      18.927670000000       0.012239249312       0.052959856752      -0.111913325927
146 1       4.442400000000       4.450390000000      22.754830000000       0.058642332043       0.125730955810       0.015825963663
147 1       8.299130000000       2.238920000000      25.057250000000       0.135951338658      -0.036370743822      -0.109467956946
148 1       0.035980000000       6.132680000000      16.817880000000       0.003064828620       0.078237487947       0.002882093674
149 1       8.296370000000       0.156160000000      22.920850000000      -0.010814245391      -0.075746566703       0.056681121437
150 1       0.059490000000       8.329520000000      18.911940000000      -0.052061367908      -0.069845057649      -0.069071481200
151 1       4.352350000000       6.343110000000      20.937460000000      -0.005830496932       0.023198579873      -0.096633848559
152 1       4.243960000000       2.197050000000      20.818310000000       0.092873346917      -0.011290053333       0.009309208701
153 1       6.406210000000       2.237390000000      23.055650000000      -0.073721023357       0.109355921033       0.063522876741
154 1       2.149060000000       6.309420000000      18.860250000000      -0.025224740849       0.030782099589      -0.028156817860
155 1       2.215080000000       4.092070000000      20.984550000000       0.054411744998      -0.036697365414       0.005893733200
156 1       6.358070000000       4.284440000000      20.934550000000      -0.314417483622       0.230159642622       0.038384246372
157 1       6.239090000000       0.007980000000      16.805140000000      -0.020841299168      -0.060460639975       0.005100756411
158 1       2.068490000000       0.014870000000       0.017560000000      -0.034304507794      -0.024422889309       0.032607761829
159 1       6.594270000000       6.451230000000      19.016730000000       0.111206827816       0.048297065400       0.052075652663
160 1       2.059640000000       2.079610000000      22.917910000000       0.025322174695      -0.013387132032      -0.069623092178
