ITEM: TIMESTEP
0
ITEM: NUMBER OF ATOMS
160
ITEM: BOX BOUNDS pp pp pp
0.0000000000000000e+00 8.3538450439999998e+00
0.0000000000000000e+00 8.3538450439999998e+00
0.0000000000000000e+00 2.5061535131999999e+01
ITEM: ATOMS id type x y z fx fy fz
1 2       1.212390000000       5.187170000000      22.036320000000      -0.354692840421       0.083969873841      -0.051975687391
2 2       5.186240000000       0.843390000000      13.641030000000       0.006833423820       0.047940196080      -0.195146647422
3 2       7.137230000000       7.385190000000       7.372270000000      -0.034422230536      -0.189902368852      -0.197437903217
4 2       7.269680000000       7.114600000000      15.734540000000      -0.064610031187       0.491086143187       0.137536732276
5 2       5.208860000000       5.239730000000       0.980980000000       0.284219456365      -0.009932757370      -0.127656699786
6 2       3.022880000000       3.195710000000       7.193790000000       0.216372218118      -0.086892242016       0.139272530336
7 2       0.948530000000       1.046060000000       1.091240000000       0.023233951170       0.053859119351      -0.080015325840
8 2       5.157640000000       1.031350000000       5.230830000000       0.000230757678       0.053384107403      -0.161415351164
9 2       3.174800000000       2.956650000000      15.611810000000      -0.080580201741       0.071386476957      -0.004683900364
10 2       5.371580000000       1.112950000000      21.862940000000       0.048902879306      -0.038452193802       0.220686520951
11 2       3.127400000000       7.232190000000      11.487470000000      -0.037475079693       0.109571771248      -0.109931959760
12 2       7.401770000000       3.189040000000      19.764920000000      -0.122818428902      -0.426007321796       0.044987661051
13 2       1.014520000000       5.084710000000      13.455680000000      -0.029087694838       0.265631522409       0.115563274559
14 2       7.309980000000       3.213690000000       3.198280000000      -0.310841191543      -0.011092414673       0.110800882735
15 2       5.087400000000       5.324810000000       9.347440000000       0.196522185885      -0.045055415506       0.193802510621
16 2       7.339670000000       7.421220000000      24.048570000000       0.046882194273      -0.107498258198      -0.007497066424
17 2       3.188290000000       7.433280000000      19.885760000000       0.034878247092      -0.119473615426      -0.037968095729
18 2       0.911110000000       1.075020000000       9.496090000000       0.066897944558      -0.245597822600      -0.145054797466
19 2       3.220380000000       7.407860000000       3.084150000000      -0.059324976623      -0.066347606862       0.024300424820
20 2       1.173720000000       1.033870000000      17.781350000000      -0.154710667043      -0.104386558460      -0.099679750672
21 2       3.919970000000       0.189780000000       8.366110000000       0.076802046568      -0.010742115722       0.032367302618
22 2       6.124790000000       6.098870000000      12.507840000000       0.317737996389       0.044258429768      -0.192528429004
23 2       2.156920000000       2.131920000000      20.900330000000      -0.008408631980      -0.161780779256       0.036663024867
24 2       6.390260000000       6.279290000000      20.850760000000       0.009267741069       0.056510546439       0.350027258072
25 2       1.958610000000       6.381300000000       8.264320000000      -0.115688137464      -0.148004089017      -0.039258247763
26 2       8.306270000000       2.055810000000       6.228290000000      -0.228981446533      -0.132152477543       0.082580808869
27 2       1.987090000000       2.089400000000       4.211670000000       0.121663045937      -0.073750026048      -0.183922528749
28 2       0.047870000000       2.008120000000      14.580530000000      -0.030808906737      -0.036582936446       0.386686442364
29 2       0.167170000000       6.189990000000      18.751990000000      -0.003821874735       0.338715702601       0.263109231832
30 2       6.258220000000       0.056570000000       2.098770000000       0.009032782715      -0.018294759209      -0.052155724970
31 2       6.084360000000       0.075490000000      10.505240000000       0.423371951283      -0.171693970523       0.191888034058
32 2       4.168990000000       2.191480000000      18.749020000000       0.292251126909      -0.008443375862      -0.221190442978
33 2       6.394970000000       8.312100000000      18.801310000000      -0.253463301477       0.438597518284      -0.220685211815
34 2       6.339640000000       2.048610000000      16.690980000000      -0.073340571721      -0.516478132316       0.268972898728
35 2       0.158320000000       2.064370000000      23.026500000000      -0.091470302241       0.238618679403       0.111623119745
36 2       2.027740000000       8.139060000000      14.713800000000      -0.129274539380       0.098667898707       0.096314900697
37 2       4.004040000000       6.011450000000      14.627010000000       0.146474235547       0.069829544133       0.093843550121
38 2       6.237510000000       4.197030000000       6.287910000000      -0.326919664080       0.171171133160      -0.287746199970
39 2       4.198410000000       6.372960000000      23.011910000000       0.324515103038       0.372250053093      -0.119308770256
40 2       0.096940000000       4.177760000000      16.706390000000       0.148604019107      -0.302594584723      -0.098356558973
41 2       2.082790000000       4.230650000000       2.086900000000      -0.000610812614      -0.009294726068       0.006024167887
42 2       4.130380000000       4.292970000000      20.832730000000       0.235531190836      -0.008341596934      -0.286392032680
43 2       4.134650000000       8.160420000000      16.768360000000       0.432098293780       0.162649515049       0.166896098952
44 2       6.286510000000       4.234030000000      22.929570000000       0.398135543150      -0.117744387135       0.308943689905
45 2       8.289640000000       6.191510000000      10.423090000000      -0.147251017270       0.294457390134       0.237913611659
46 2       8.337560000000       8.286930000000      12.553810000000      -0.170103781643      -0.195201877746      -0.197016725297
47 2       0.032830000000       4.265340000000       0.038320000000      -0.395703783061      -0.058441232291      -0.300547830010
48 2       6.204710000000       4.052960000000      14.591450000000       0.111204811514       0.036493710109      -0.320850634886
49 2       4.125410000000       4.182690000000       4.144310000000       0.380860322645       0.128554723776       0.237769472446
50 2       2.121740000000       2.031190000000      12.456760000000       0.227976154361      -0.169908807582       0.231423858290
51 2       2.090290000000       4.100660000000      10.455160000000       0.108659633545       0.272510669013      -0.160187849966
52 2       0.041230000000       6.413800000000       2.192250000000       0.056650951743      -0.172415255632      -0.040086847528
53 2       0.203350000000       8.312930000000      20.986480000000      -0.218088535149      -0.085322338785       0.028956475220
54 2       4.114290000000       2.037070000000       1.979620000000      -0.059407498331       0.192251880803       0.031670226832
55 2       6.188230000000       2.053050000000      25.016090000000       0.018935174432       0.261785777966      -0.174357500543
56 2       8.329190000000       4.134050000000       8.350010000000      -0.030661509228       0.033917289830      -0.018487088176
57 2       6.071490000000       2.162310000000       8.456720000000       0.148196558495       0.111993546866      -0.032897644115
58 2       4.009800000000       6.407680000000       6.204980000000       0.090606061676      -0.400948202923      -0.206318927411
59 2       6.322220000000       6.405240000000       4.228480000000       0.019460801081      -0.350563488934       0.147687844318
60 2       2.174380000000       6.369080000000      25.027100000000      -0.211730682146       0.093152479723       0.175049091152
61 2       5.156630000000       3.114790000000      11.530160000000      -0.273584161612      -0.003388557168       0.062645250791
62 2       3.166840000000       1.076420000000      23.995990000000       0.100319422579      -0.407173939639       0.041942182798
63 2       3.165340000000       5.154710000000      17.746870000000      -0.122421773930      -0.033671142306      -0.031536916784
64 2       0.986170000000       7.375020000000       5.214920000000      -0.034144357860       0.248711792232      -0.035044573077
65 1       2.114520000000       2.140840000000       2.115930000000       0.195153363994       0.168780494364       0.189473918932
66 1       6.129810000000       6.217590000000       6.229150000000       0.090276505467      -0.030528871798      -0.121711450815
67 1       4.232110000000       8.294090000000       6.406910000000       0.057757809109       0.105769880269      -0.075918794976
68 1       4.296210000000       0.128230000000       2.071820000000      -0.010194905482       0.008134402266       0.059790717810
69 1       8.237440000000       6.332900000000       4.113610000000       0.305720752864      -0.115824730838       0.254788375772
70 1       0.026740000000       2.164370000000       4.258880000000       0.171574421335       0.031034553934       0.226746291160
71 1       6.186150000000       4.160210000000       8.324090000000       0.266594264523      -0.202598254490      -0.132235680583
72 1       1.915180000000       4.421850000000       0.219440000000      -0.006897517260      -0.029252877804       0.057196418038
73 1       8.345950000000       4.339150000000       2.069940000000       0.277609335201       0.073088278843      -0.145049155527
74 1       8.110870000000       4.012020000000       6.485210000000      -0.008218387114      -0.026497820067       0.099816857209
75 1       4.271830000000       2.116360000000       0.052470000000      -0.330680686329       0.153531487283      -0.197921166633
76 1       4.005940000000       6.369780000000       8.222950000000      -0.104191086224       0.067018341018      -0.084271783093
77 1       2.106570000000       0.081980000000       4.158960000000       0.067597446319       0.147553432031      -0.005761188067
78 1       6.135590000000       8.302840000000       4.080030000000      -0.066463389151       0.176087702849       0.027678135720
79 1       2.092420000000       6.362960000000       6.334030000000      -0.249596303289      -0.070291559225      -0.272825447453
80 1       6.205830000000       2.120500000000       2.026260000000      -0.075578119792      -0.122640772085      -0.100952972480
81 1       4.169940000000       4.113670000000       2.105790000000      -0.276406328701      -0.075439043034       0.158509749095
82 1       4.210720000000       4.317990000000       6.158130000000      -0.174191876189      -0.129536196471       0.035424963783
83 1       8.153350000000       2.097150000000       8.335380000000      -0.020648136323       0.276106165684      -0.252719744532
84 1       0.044970000000       6.287530000000       0.091130000000       0.274174626516      -0.114359151456      -0.096675518993
85 1       8.212880000000       0.065940000000       6.285000000000       0.090665186751       0.139472045159      -0.055000855973
86 1       8.220150000000       8.326830000000       2.103370000000       0.027374340179       0.010829571341      -0.067903107212
87 1       4.227820000000       6.217150000000       4.217700000000      -0.142503386465       0.061307400043       0.083062971895
88 1       4.111450000000       2.163520000000       4.095970000000      -0.237689160267       0.045255697595       0.060743295282
89 1       6.236180000000       2.160480000000       6.336290000000       0.225690642950       0.041605069772      -0.006053137567
90 1       2.048660000000       6.315720000000       2.057750000000      -0.190497308983      -0.156377299980      -0.144688823949
91 1       2.244240000000       4.036950000000       3.952960000000       0.025599755874       0.058549482788      -0.037127096093
92 1       6.142210000000       4.309760000000       4.259520000000       0.089098386247       0.007667031521       0.018180486522
93 1       6.360970000000       0.152420000000       0.113210000000       0.069200438379      -0.080292424672       0.000848653869
94 1       2.025550000000       8.305140000000       8.495890000000       0.133474158326       0.242007240446       0.111000126004
95 1       6.305850000000       6.338200000000       2.151700000000       0.075769414957       0.099374262842       0.127937541145
96 1       1.914120000000       2.149430000000       6.153990000000      -0.033054244278      -0.070233337207       0.068569296637
97 1       2.020160000000       2.143460000000      10.511420000000       0.124868702755       0.043784999306       0.059514745206
98 1       6.184000000000       6.105710000000      14.547450000000      -0.155413705126      -0.206181269812      -0.176955414945
99 1       4.096250000000       8.163080000000      14.757430000000      -0.016474675611      -0.182063555475       0.103233486506
100 1       4.196960000000       8.194120000000      10.315950000000      -0.161510960188      -0.004299171198       0.085327374637
101 1       8.209210000000       6.270750000000      12.440540000000       0.039182682574      -0.128827537359      -0.038703219542
102 1       0.164380000000       1.804400000000      12.713930000000      -0.008832517543      -0.018543490705      -0.101770689427
103 1       6.519250000000       3.909790000000      16.476620000000      -0.013216059293       0.081289694087       0.035203585380
104 1       2.019840000000       4.302620000000       8.366920000000      -0.256451527071       0.003726653261       0.215829306310
105 1       0.123510000000       4.321380000000      10.216570000000      -0.011022727353      -0.021253179392      -0.047176125500
106 1       8.352730000000       4.008170000000      14.635780000000      -0.174192150662      -0.052964641641       0.165437293631
107 1       4.143720000000       2.089850000000       8.211850000000      -0.249397927049      -0.133993521450      -0.155738304054
108 1       4.128530000000       6.261160000000      16.589430000000       0.007022193853      -0.075557005438       0.289693768485
109 1       2.018160000000       8.309540000000      12.593500000000      -0.028665820242       0.196241831486      -0.106752785698
110 1       6.312870000000       8.189780000000      12.488250000000       0.005803667029       0.119388504128      -0.073689978180
111 1       2.092280000000       6.228920000000      14.474310000000       0.102257157776      -0.313675149117      -0.177363628200
112 1       6.122730000000       1.997850000000      10.378590000000       0.115333179436       0.255685964614       0.222425261752
113 1       4.093650000000       4.228650000000      10.449770000000      -0.156090544243      -0.112289168196       0.136605184894
114 1       4.265270000000       4.114460000000      14.689140000000      -0.029092005542       0.154226966891       0.050707051422
115 1       0.025930000000       2.028490000000      16.607210000000      -0.034936102980       0.234120118468       0.100438284502
116 1       8.306980000000       6.272280000000       8.382890000000       0.185662236202      -0.271765324378       0.147235967882
117 1       0.033610000000       8.242320000000      14.620390000000       0.189019681342       0.140121579957      -0.147863831500
118 1       8.168970000000       8.222280000000      10.537440000000       0.160901115699       0.150382582841       0.002531689220
119 1       4.238850000000       6.323460000000      12.674180000000      -0.090030863813       0.031525031304       0.011748308490
120 1       4.135640000000       1.941260000000      12.578260000000      -0.149686299774      -0.014162296474      -0.047464871296
121 1       6.354000000000       1.960150000000      14.650390000000       0.153881725209       0.297682614938       0.059033722113
122 1       1.980710000000       6.185150000000      10.371970000000      -0.049841504859      -0.171866040232       0.028098042275
123 1       2.052380000000       3.995290000000      12.402210000000       0.044947748689      -0.019175818096      -0.030154740464
124 1       6.210580000000       4.183970000000      12.646470000000      -0.009626107880      -0.232752276679      -0.268143361302
125 1       6.088450000000       0.108490000000       8.489320000000      -0.089042013501       0.123984242617       0.096056369549
126 1       2.219510000000       0.038660000000      16.624910000000      -0.133603449884       0.027882103814       0.075696725992
127 1       6.272500000000       6.306470000000      10.490500000000       0.040373087988      -0.120003087892       0.153564677278
128 1       2.081820000000       1.867700000000      14.537780000000      -0.268398201406       0.108285100079      -0.237669486895
129 1       2.265400000000       2.007030000000      18.913980000000      -0.053857548782      -0.096090351135       0.043341812159
130 1       6.317360000000       6.290390000000      22.881730000000      -0.204786357673      -0.056442197298       0.065411836394
131 1       4.312810000000       0.031920000000      22.932350000000       0.034726554994      -0.179797015382       0.069206043612
132 1       4.361310000000       0.072070000000      18.739050000000      -0.069010350717      -0.259675923842       0.042340042908
133 1       0.106740000000       6.321290000000      20.904840000000      -0.077348957271       0.114865722748      -0.243111031235
134 1       0.106520000000       2.069450000000      20.946330000000       0.198732896948       0.070200970631       0.116493166925
135 1       6.375800000000       4.148650000000      24.972820000000      -0.106954698427      -0.044921711269      -0.015244029381
136 1       2.097880000000       4.026740000000      16.686740000000      -0.080598001199       0.020653825088       0.059102820155
137 1       0.074330000000       4.232350000000      18.666750000000      -0.001427115664       0.189881689866      -0.186191429304
138 1       8.312750000000       4.137810000000      23.070630000000       0.115645743369       0.072983018301       0.005149190287
139 1       4.326980000000       1.930870000000      16.773330000000      -0.021896059107       0.239422160899      -0.050798874419
140 1       4.142050000000       6.286030000000      24.970210000000      -0.187974271627      -0.060798247413      -0.179758942246
141 1       2.097160000000       0.145280000000      20.896550000000       0.047375470228       0.004357583099      -0.040507860871
142 1       6.466520000000       0.006580000000      20.814000000000       0.002223087488      -0.285865604596      -0.157489358338
143 1       2.240950000000       6.306590000000      23.085530000000      -0.033733858004       0.040015544549      -0.025325558513
144 1       6.280760000000       1.989630000000      18.718810000000      -0.063664107529       0.091707201453      -0.028432798418
145 1       4.220790000000       4.109920000000      18.897210000000       0.040634962421       0.238923262694      -0.345552138507
146 1       4.430840000000       4.441190000000      22.725130000000      -0.086079985737      -0.034833170258       0.033512602429
147 1       8.286040000000       2.235250000000      25.020670000000       0.152227483615      -0.031113845069      -0.080470727232
148 1       0.041490000000       6.124640000000      16.791040000000       0.167433833718      -0.064831772020       0.114243242066
149 1       8.285680000000       0.155000000000      22.887020000000      -0.052284992299      -0.084469335738       0.067650020058
150 1       0.059940000000       8.315690000000      18.884410000000      -0.005007170365      -0.266150204995      -0.119204480388
151 1       4.346680000000       6.333190000000      20.906950000000       0.088357521673      -0.251810228795       0.125868308487
152 1       4.238400000000       2.193520000000      20.788070000000      -0.184391744635       0.226110931930      -0.070402023801
153 1       6.397720000000       2.234330000000      23.020970000000      -0.063576517193       0.013780498861       0.074926573909
154 1       2.147740000000       6.299640000000      18.831590000000      -0.022559043019       0.097361704180       0.042095929367
155 1       2.212790000000       4.088550000000      20.946540000000       0.075292967541      -0.050443999974       0.042899638773
156 1       6.344070000000       4.277500000000      20.903090000000      -0.275122178879       0.084442117245       0.137280017343
157 1       6.230090000000       0.007810000000      16.779200000000       0.070521656930      -0.011271904574       0.054299497880
158 1       2.064410000000       0.015600000000       0.018290000000      -0.066470268744      -0.083964523397      -0.006608941065
159 1       6.582240000000       6.436500000000      18.983360000000      -0.047527301203      -0.042894726157      -0.056399899238
160 1       2.056500000000       2.082790000000      22.884410000000       0.161970726531       0.024056758992       0.159181857373
