ITEM: TIMESTEP
0
ITEM: NUMBER OF ATOMS
40
ITEM: BOX BOUNDS pp pp pp
0.0000000000000000e+00 8.8901525059999997e+00
0.0000000000000000e+00 5.1770148819999999e+00
0.0000000000000000e+00 9.5127244070000003e+00
ITEM: ATOMS id type x y z fx fy fz
1 2       1.390510000000       1.604840000000       8.453390000000       0.104482953578      -0.035606338336       0.022065209996
2 2       3.164730000000       4.193340000000       8.453400000000      -0.104588580371      -0.035578643081       0.022025862118
3 2       5.859890000000       0.910430000000       7.599740000000      -0.038776053302      -0.039625895166      -0.060022357934
4 2       7.585490000000       3.498940000000       7.599740000000       0.038814599226      -0.039655359918      -0.059971092321
5 2       4.791510000000       3.507430000000       5.671790000000       0.220295349492      -0.161521831275       0.125506692574
6 2       1.492760000000       3.553730000000       5.797980000000       0.095848840836      -0.053846738365       0.255548501928
7 2       3.062460000000       0.965220000000       5.797980000000      -0.095701028507      -0.053734558518       0.255449298426
8 2       8.653870000000       0.918920000000       5.671790000000      -0.220218080416      -0.161494692755       0.125474372168
9 2       1.414560000000       1.677660000000       2.843410000000      -0.037093036783       0.038088268948      -0.062185258363
10 2       3.140680000000       4.266170000000       2.843410000000       0.036934374752       0.037948335309      -0.062137498590
11 2       5.834860000000       0.985440000000       3.697260000000       0.102839162496       0.023571079143       0.020677377935
12 2       7.610520000000       3.573950000000       3.697260000000      -0.102774859886       0.023442878515       0.020601387202
13 2       4.209330000000       1.669920000000       0.915850000000      -0.215089479896       0.164792078069       0.126156294651
14 2       5.937590000000       4.211630000000       1.041310000000       0.097295503636       0.055543441112       0.256312941719
15 2       7.507790000000       1.623120000000       1.041300000000      -0.097106517896       0.055621930169       0.256361356687
16 2       0.345900000000       4.258430000000       0.915850000000       0.215105363221       0.164810678226       0.126189463938
17 1       7.422450000000       1.798340000000       4.477140000000       0.036274877572      -0.027542051780       0.008676686537
18 1       0.044840000000       0.787220000000       0.058600000000       0.107125656120      -0.078599937968       0.008922221965
19 1       7.449700000000       0.085500000000       7.028780000000       0.067432097918       0.125102260769      -0.161360343938
20 1       7.371540000000       5.018550000000       2.145580000000       0.063697055999      -0.129669231092      -0.106487832875
21 1       6.022930000000       4.386850000000       4.477140000000      -0.036261961665      -0.027594286388       0.008693389391
22 1       7.540210000000       3.383190000000       9.492700000000       0.025802268761       0.004273521380      -0.136678601818
23 1       5.995680000000       2.674010000000       7.028790000000      -0.067538874663       0.125093765011      -0.161446577431
24 1       6.073850000000       2.430040000000       2.145580000000      -0.063753759272      -0.129631474756      -0.106482349042
25 1       1.459690000000       1.793300000000       4.736410000000      -0.024921258498      -0.003553233579      -0.134671856712
26 1       2.977860000000       0.791090000000       9.233820000000       0.033547781255       0.030420826189       0.007605643934
27 1       1.630190000000       0.157300000000       6.902860000000      -0.062245308053       0.129062806227      -0.101347562558
28 1       1.550810000000       5.090950000000       2.272600000000      -0.068003683325      -0.121954456320      -0.159578436339
29 1       0.065850000000       4.390210000000       4.815160000000      -0.105378628313       0.080043341425       0.010465663288
30 1       1.577370000000       3.379600000000       9.233820000000      -0.033446747861       0.030452674439       0.007577600128
31 1       0.147880000000       2.463070000000       6.978990000000      -0.110466768703       0.033394045133       0.040343541283
32 1       8.851980000000       2.713350000000       2.223040000000       0.110199984028      -0.032411637854       0.040126174210
33 1       4.489380000000       1.801710000000       4.815160000000       0.105301123772       0.079914404660       0.010505367350
34 1       5.905180000000       0.794680000000       9.492700000000      -0.025909103255       0.004247484605      -0.136669403507
35 1       4.407340000000       5.051580000000       6.978990000000       0.110531217877       0.033357492195       0.040377143322
36 1       4.593410000000       0.124840000000       2.223050000000      -0.110192722260      -0.032373216158       0.039995806483
37 1       3.095540000000       4.381800000000       4.736410000000       0.024912186658      -0.003494613544      -0.134644477655
38 1       4.510400000000       3.375720000000       0.058600000000      -0.107143456548      -0.078535971330       0.008931684163
39 1       2.925030000000       2.745800000000       6.902870000000       0.062160216402       0.129127604455      -0.101354069825
40 1       3.004430000000       2.502440000000       2.272600000000       0.068009295872      -0.121884747792      -0.159551962487
