ITEM: TIMESTEP
0
ITEM: NUMBER OF ATOMS
160
ITEM: BOX BOUNDS pp pp pp
0.0000000000000000e+00 8.4420705480000002e+00
0.0000000000000000e+00 8.4420705480000002e+00
0.0000000000000000e+00 2.5326211644000001e+01
ITEM: ATOMS id type x y z fx fy fz
1 2       1.223250000000       5.240270000000      22.276570000000      -0.133387045303       0.123766975102      -0.060423969314
2 2       5.246120000000       0.852750000000      13.784990000000      -0.154916903672      -0.030518203614      -0.017147506223
3 2       7.217160000000       7.463600000000       7.448720000000      -0.143454082420       0.066785252783      -0.036548506393
4 2       7.348650000000       7.192510000000      15.897730000000       0.004452951585       0.004055076431       0.015278451821
5 2       5.270380000000       5.290960000000       0.990740000000       0.135348584603       0.253698742363      -0.006453623680
6 2       3.055640000000       3.231220000000       7.267520000000       0.029087938856      -0.126958881305      -0.021230356495
7 2       0.962270000000       1.055850000000       1.096730000000      -0.128490915080       0.055726013594      -0.040180049555
8 2       5.211930000000       1.034340000000       5.285500000000       0.019939001512       0.170636037539       0.020774550064
9 2       3.209010000000       2.992220000000      15.784470000000      -0.053052591235       0.006540331952       0.022868562784
10 2       5.427800000000       1.126660000000      22.090800000000      -0.098985160639       0.076550370295       0.048080773086
11 2       3.166490000000       7.314480000000      11.608210000000      -0.069253341549      -0.030731067243      -0.001152493402
12 2       7.485610000000       3.223860000000      19.974480000000       0.117880027486      -0.254055053939      -0.034151087783
13 2       1.029320000000       5.141430000000      13.594440000000       0.004259149459       0.114705105728      -0.032147152103
14 2       7.386420000000       3.249160000000       3.230930000000      -0.162905230996      -0.279980203219      -0.007289372574
15 2       5.137640000000       5.372450000000       9.450700000000      -0.053283948186       0.147370242914       0.021439581568
16 2       7.420540000000       7.502850000000      24.298420000000      -0.046187071444      -0.174222000593       0.018962196364
17 2       3.219160000000       7.511790000000      20.089030000000      -0.080555835426      -0.042919659795       0.019073845860
18 2       0.921710000000       1.083280000000       9.603280000000       0.107497170625       0.002474540572      -0.003548803584
19 2       3.252800000000       7.485420000000       3.129160000000       0.088367803431      -0.030678450063      -0.015861542749
20 2       1.189880000000       1.040930000000      17.966970000000      -0.130649620529       0.041668803036       0.020686598719
21 2       3.965530000000       0.190660000000       8.452620000000       0.218235808196      -0.220206181407       0.007930905933
22 2       6.187120000000       6.166190000000      12.641590000000       0.032023333932      -0.039852840084      -0.047566321361
23 2       2.178230000000       2.146630000000      21.120480000000       0.054291547090      -0.093567941151       0.081080521963
24 2       6.460200000000       6.351130000000      21.077460000000       0.024182427443      -0.159783396885       0.066599599717
25 2       1.980920000000       6.456190000000       8.355020000000      -0.062631744639       0.035217501087       0.026305349218
26 2       8.389270000000       2.080540000000       6.293280000000       0.250465033430       0.113532953371      -0.253232049745
27 2       2.012480000000       2.114910000000       4.258430000000      -0.153901127286       0.203200448355       0.101527273745
28 2       0.056980000000       2.032730000000      14.742750000000       0.035978567142       0.175433836843       0.066144647342
29 2       0.162680000000       6.259670000000      18.947310000000       0.028220605815      -0.117381149106      -0.116662144069
30 2       6.320390000000       0.055320000000       2.119230000000       0.031613653317      -0.025771493240      -0.006473377544
31 2       6.145360000000       0.072430000000      10.613540000000       0.036070367453      -0.038779889002       0.058134080367
32 2       4.205010000000       2.216250000000      18.945950000000       0.104292323240      -0.086093452886      -0.157601550136
33 2       6.463320000000       8.410420000000      19.003870000000       0.111909353294       0.092124708357      -0.074239526769
34 2       6.409760000000       2.060260000000      16.863180000000      -0.005498388206       0.004292992344       0.199890056455
35 2       0.162200000000       2.078360000000      23.274640000000      -0.061597403230       0.128487578758       0.161237604426
36 2       2.054910000000       8.233590000000      14.866610000000      -0.092389299668      -0.013674131502      -0.102044593221
37 2       4.041040000000       6.081010000000      14.780840000000       0.199784466956       0.155277837484       0.082817201746
38 2       6.290150000000       4.235290000000       6.362290000000      -0.036513236568      -0.014072306935      -0.200802259973
39 2       4.249030000000       6.435180000000      23.255140000000      -0.114909691914      -0.138770728596       0.201586000813
40 2       0.098130000000       4.220550000000      16.878100000000      -0.060449306150       0.053059233385       0.261037906729
41 2       2.100380000000       4.275480000000       2.110170000000       0.029070404021      -0.031116831985       0.003934519195
42 2       4.162610000000       4.343940000000      21.050180000000       0.036314253344      -0.054795881536       0.050395923504
43 2       4.173440000000       8.251110000000      16.944310000000       0.087094184653       0.055715319381       0.151580885484
44 2       6.364380000000       4.274160000000      23.158650000000       0.066871232791      -0.096129194276       0.092047308320
45 2       8.378380000000       6.266780000000      10.526900000000      -0.002060009389       0.041702382818       0.191673546925
46 2       8.428460000000       8.366820000000      12.689980000000       0.023585274110      -0.110591527296      -0.232059911362
47 2       0.021270000000       4.315380000000       0.044840000000      -0.079598603052       0.051745256443      -0.142898464622
48 2       6.264250000000       4.097190000000      14.746350000000       0.135476772051       0.063610801731      -0.070984220963
49 2       4.181890000000       4.224010000000       4.175270000000       0.086529994374      -0.051516994372       0.159053339453
50 2       2.140650000000       2.050900000000      12.592030000000      -0.139380004971       0.245666079318      -0.153008356750
51 2       2.109170000000       4.149930000000      10.569090000000      -0.195387916947      -0.199438386786       0.103722341635
52 2       0.040810000000       6.492420000000       2.212630000000       0.059409266793       0.029682838532      -0.069703618419
53 2       0.204870000000       8.401820000000      21.206430000000      -0.028281193049      -0.171960957188      -0.138234287771
54 2       4.156500000000       2.050700000000       2.000450000000      -0.102585114681      -0.022387164942       0.047963832145
55 2       6.255950000000       2.065410000000      25.277340000000       0.066080023489       0.074556180251      -0.155840990541
56 2       8.421870000000       4.166320000000       8.440910000000      -0.057372369257       0.065937993324      -0.020377619931
57 2       6.130960000000       2.179920000000       8.542930000000      -0.054978305511       0.073363350583      -0.086769293293
58 2       4.054850000000       6.472540000000       6.276050000000       0.066410775634      -0.050605932814      -0.095308134966
59 2       6.389130000000       6.480090000000       4.278550000000      -0.062899154599      -0.097161509964       0.139375719945
60 2       2.199680000000       6.434070000000      25.297440000000       0.146934965312      -0.182247932275      -0.136392580378
61 2       5.201190000000       3.144630000000      11.651440000000      -0.089827594744      -0.082703186486      -0.010337235671
62 2       3.202850000000       1.075830000000      24.247220000000       0.067994058062      -0.035705300410      -0.002719969072
63 2       3.187870000000       5.214470000000      17.932990000000      -0.077899936649       0.064366585856      -0.001029602067
64 2       0.996030000000       7.461060000000       5.274630000000       0.002993819232       0.051939363429       0.000263735535
65 1       2.139100000000       2.156750000000       2.134880000000       0.080104996423       0.042335092415      -0.082440770255
66 1       6.203790000000       6.278370000000       6.293880000000       0.047339206098       0.012934081097      -0.006922004012
67 1       4.299000000000       8.368490000000       6.480600000000      -0.020043998729       0.114194126563       0.035972168082
68 1       4.343070000000       0.131100000000       2.119480000000       0.089643412001      -0.044768629007       0.006186786223
69 1       8.317780000000       6.434010000000       4.148380000000       0.058655207347      -0.028397251762       0.079626711729
70 1       0.036530000000       2.216180000000       4.310740000000       0.114481340986       0.013243811863       0.143578367543
71 1       6.237380000000       4.193730000000       8.413290000000       0.230522840007      -0.101099127547       0.074700915666
72 1       1.909730000000       4.486210000000       0.246020000000       0.004311497207       0.188931825409      -0.029400053695
73 1       8.429480000000       4.389380000000       2.096440000000       0.143373870097       0.055539369812      -0.005609638725
74 1       8.169260000000       4.035850000000       6.578640000000      -0.019051071311      -0.170213137289      -0.020364242111
75 1       4.325920000000       2.103600000000       0.061000000000      -0.077239555180       0.014092025621      -0.037860105089
76 1       4.046400000000       6.425010000000       8.308730000000       0.017478559992       0.137302628572      -0.083263697086
77 1       2.125720000000       0.079250000000       4.206700000000       0.014965932395      -0.061064012614      -0.039656895974
78 1       6.186970000000       8.384320000000       4.119840000000       0.002870665872       0.091554910531      -0.098943449331
79 1       2.121570000000       6.462600000000       6.412710000000      -0.069727372325      -0.006351020846      -0.062940448673
80 1       6.271530000000       2.136050000000       2.046240000000       0.062925169479       0.064390356331       0.074937000427
81 1       4.219190000000       4.153250000000       2.120590000000      -0.165257930773      -0.065472027671       0.021798628621
82 1       4.254090000000       4.363590000000       6.215480000000      -0.114386522173       0.008173532537       0.048184582330
83 1       8.243540000000       2.116760000000       8.433500000000      -0.036210954531       0.048383522440       0.007446910912
84 1       0.041890000000       6.354970000000       0.085290000000       0.108052544177       0.016637272180      -0.052082945216
85 1       8.301540000000       0.065590000000       6.353510000000       0.012303814581      -0.001464950389       0.010859085226
86 1       8.301640000000       8.413570000000       2.099200000000      -0.104799800405       0.046081486938       0.011550339729
87 1       4.271570000000       6.279300000000       4.271310000000      -0.112577133513       0.080921271530       0.038114839881
88 1       4.156920000000       2.183640000000       4.145330000000      -0.073067472201      -0.021689107480       0.023492788913
89 1       6.303200000000       2.176430000000       6.398920000000      -0.026565770926      -0.057389737545      -0.013273544621
90 1       2.069410000000       6.389740000000       2.084650000000      -0.030606218299      -0.031114441155       0.105231147562
91 1       2.294770000000       4.063870000000       3.971780000000       0.004233746644      -0.202379284488       0.044186883467
92 1       6.208060000000       4.355220000000       4.307930000000       0.075344745140       0.069900859703      -0.069067716173
93 1       6.443170000000       0.156720000000       0.112920000000       0.015579340653      -0.066225731885       0.074950785766
94 1       2.061200000000       8.393920000000       8.611920000000       0.059750534804       0.010747589107      -0.048643308592
95 1       6.373110000000       6.409220000000       2.174620000000      -0.065575072783      -0.046435640278      -0.021365557822
96 1       1.924450000000       2.200370000000       6.209600000000      -0.080391457380       0.021041676518      -0.001658311367
97 1       2.013280000000       2.176320000000      10.635510000000      -0.026511300800       0.070016020196       0.054133539600
98 1       6.253700000000       6.166030000000      14.703150000000      -0.146357804645       0.013450479129       0.028604903469
99 1       4.142340000000       8.256310000000      14.916030000000       0.035961754459      -0.119750462431       0.114230280682
100 1       4.251720000000       8.260300000000      10.414760000000      -0.128365065317       0.028311443005      -0.010868082543
101 1       8.295200000000       6.337240000000      12.563700000000       0.029280192393      -0.098763204496       0.015952837078
102 1       0.184630000000       1.798180000000      12.876630000000       0.199344391762      -0.022715835397       0.001479423701
103 1       6.610910000000       3.924620000000      16.627860000000       0.078741552239      -0.064104119402       0.033111078859
104 1       2.040830000000       4.345300000000       8.448550000000      -0.040960875940       0.034241243343      -0.021892449069
105 1       0.140200000000       4.392390000000      10.302890000000       0.210366454357       0.014606737911       0.051209504698
106 1       0.009280000000       4.048940000000      14.781530000000      -0.195455565751      -0.168295426198      -0.084870401925
107 1       4.189990000000       2.099380000000       8.269700000000      -0.011483606637      -0.082482969862       0.056230592174
108 1       4.137340000000       6.339610000000      16.758580000000      -0.051061710087      -0.105239399057      -0.118673795837
109 1       2.045420000000       8.401720000000      12.719760000000       0.033327346023       0.000632937481       0.012829752526
110 1       6.382820000000       8.278910000000      12.616360000000       0.011561079781       0.117359580191       0.003252815592
111 1       2.121750000000       6.307620000000      14.599940000000       0.084257060313      -0.014489102443       0.052516991242
112 1       6.153150000000       2.010400000000      10.478460000000       0.004813510038       0.056898693921       0.073588429603
113 1       4.136770000000       4.269290000000      10.561220000000       0.034213848597       0.013880426195      -0.034927988459
114 1       4.312350000000       4.172000000000      14.875900000000      -0.018292135964       0.008532299586      -0.002612529477
115 1       0.032370000000       2.046870000000      16.779740000000       0.050021289254       0.068266472255       0.036196467313
116 1       8.402470000000       6.349230000000       8.471570000000       0.092165587558      -0.231497855386      -0.053061831327
117 1       0.044230000000       8.320040000000      14.776980000000       0.197750706637       0.102481803890       0.018168707196
118 1       8.253320000000       8.311160000000      10.656140000000      -0.003238367233       0.126876044513      -0.023241127451
119 1       4.292220000000       6.411820000000      12.813370000000      -0.115168075055      -0.011099420975       0.055542486533
120 1       4.186160000000       1.961760000000      12.715160000000       0.074165645764       0.016570242841       0.007722254842
121 1       6.424490000000       1.977620000000      14.804770000000       0.022173317471       0.101284003135      -0.039788692296
122 1       2.007340000000       6.251310000000      10.487050000000       0.068694448275       0.001486554247       0.027409028102
123 1       2.050090000000       4.030120000000      12.524940000000      -0.031591747324      -0.092940008980       0.022963959504
124 1       6.240730000000       4.236510000000      12.788720000000       0.019617237484      -0.086967887851      -0.065318192754
125 1       6.161530000000       0.109690000000       8.580740000000      -0.117622726697      -0.030541467626       0.080638590780
126 1       2.249580000000       0.059370000000      16.789740000000      -0.069139519228      -0.005517689836       0.005433719452
127 1       6.340790000000       6.365980000000      10.601830000000       0.006540107533      -0.038433420583      -0.030426785529
128 1       2.113140000000       1.895120000000      14.693520000000      -0.024290287729      -0.019259087689      -0.022854442322
129 1       2.293330000000       2.011350000000      19.114590000000      -0.056787226775      -0.031926138273       0.029816705554
130 1       6.384960000000       6.362300000000      23.120110000000      -0.041718061804       0.086045347191       0.075407865577
131 1       4.358530000000       0.037290000000      23.169070000000       0.001182087331       0.072202509394       0.025416060401
132 1       4.407320000000       0.067210000000      18.928840000000      -0.080661902055      -0.042393618473      -0.075818220165
133 1       0.113840000000       6.395410000000      21.137630000000       0.096832220861       0.188783049927      -0.051744581587
134 1       0.114820000000       2.091380000000      21.167300000000      -0.039322591739       0.031791491982      -0.008046152043
135 1       6.444170000000       4.189860000000      25.230330000000      -0.047641142271      -0.072685322323       0.076039272132
136 1       2.121270000000       4.071130000000      16.866320000000       0.078459469190      -0.024928311566       0.042868362503
137 1       0.050440000000       4.288070000000      18.854860000000      -0.019862863933       0.102573792332      -0.075529747460
138 1       8.402030000000       4.174930000000      23.320990000000       0.110159081796       0.003733502784       0.007907600665
139 1       4.376440000000       1.959740000000      16.957580000000      -0.068693581395       0.046898454764       0.066040921005
140 1       4.181730000000       6.322210000000      25.227160000000      -0.140400532263      -0.019417754112      -0.073390506465
141 1       2.109440000000       0.144980000000      21.093510000000       0.026903967382       0.141171966316       0.016145452384
142 1       6.533100000000       0.017120000000      21.031170000000       0.067312071411      -0.107742003178      -0.152882128732
143 1       2.277770000000       6.344870000000      23.344520000000       0.012140606175      -0.019488956184      -0.072927358710
144 1       6.347490000000       2.013010000000      18.911100000000      -0.093758625264       0.147443747500       0.063229037015
145 1       4.229060000000       4.148870000000      19.105420000000       0.019756688983       0.051287620422      -0.097535359580
146 1       4.507310000000       4.505990000000      22.937130000000       0.012773573173       0.125147045730       0.055021391703
147 1       8.376320000000       2.260250000000      25.280380000000       0.126760427855      -0.093337129953      -0.046138471607
148 1       0.015050000000       6.179550000000      16.974310000000       0.004826135037       0.008102217716       0.074189070270
149 1       8.356020000000       0.162670000000      23.118710000000      -0.006301225040      -0.053989814821       0.024892258801
150 1       0.059000000000       8.407780000000      19.074360000000       0.008373502509      -0.109899005817      -0.029279834318
151 1       4.387100000000       6.402440000000      21.121740000000      -0.020374716135       0.021022066329      -0.065634666022
152 1       4.281110000000       2.217610000000      21.002470000000       0.067674397774       0.031498341934       0.048479172790
153 1       6.459350000000       2.260910000000      23.264800000000      -0.023075347690       0.036938868816      -0.005914109106
154 1       2.167160000000       6.365310000000      19.029220000000      -0.047363778764       0.022408537261      -0.025746544249
155 1       2.240600000000       4.118690000000      21.202190000000       0.083188845017      -0.095302772332      -0.001604422663
156 1       6.429580000000       4.330610000000      21.120700000000      -0.314792247247       0.153006642873      -0.010195741438
157 1       6.293660000000       0.005550000000      16.959290000000      -0.036129095293      -0.110587476817      -0.042759839774
158 1       2.089040000000       0.016760000000       0.016560000000      -0.035734224374       0.049970314010       0.027458255738
159 1       6.669550000000       6.530320000000      19.210070000000       0.126727258746       0.028408645743       0.022852017407
160 1       2.071090000000       2.068870000000      23.120250000000       0.034270002156      -0.020387725075      -0.081666345704
