ITEM: TIMESTEP
0
ITEM: NUMBER OF ATOMS
80
ITEM: BOX BOUNDS pp pp pp
0.0000000000000000e+00 9.3921226660000006e+00
0.0000000000000000e+00 9.3921226660000006e+00
0.0000000000000000e+00 9.3921226660000006e+00
ITEM: ATOMS id type x y z fx fy fz
1 2       7.044090000000       2.348030000000       2.348030000000       0.000007370006       0.000004164698       0.000008001056
2 2       7.044090000000       4.360060000000       4.696060000000       0.000005344933       0.065648248522       0.000000763446
3 2       0.000000000000       7.044090000000       0.336000000000      -0.000022899121      -0.000000693792      -0.065688374185
4 2       0.000000000000       2.348030000000       4.360060000000      -0.000023964868       0.000007524174       0.065654384330
5 2       0.336000000000       0.000000000000       7.044090000000      -0.065688374185      -0.000022899121      -0.000000693792
6 2       0.336000000000       4.696060000000       2.348030000000      -0.065684996258      -0.000000302317       0.000001485426
7 2       2.348030000000       4.360060000000       0.000000000000       0.000007524174       0.065654384330      -0.000023964868
8 2       2.348030000000       7.044090000000       2.348030000000       0.000008001056       0.000007370006       0.000004164698
9 2       2.348030000000       2.348030000000       2.348030000000      -0.000001776381      -0.000001776381      -0.000001776381
10 2       2.348030000000       2.348030000000       7.044090000000       0.000004164698       0.000008001056       0.000007370006
11 2       2.348030000000       0.336000000000       4.696060000000       0.000001485426      -0.065684996258      -0.000000302317
12 2       4.360060000000       0.000000000000       2.348030000000       0.065654384330      -0.000023964868       0.000007524174
13 2       4.360060000000       4.696060000000       7.044090000000       0.065648248522       0.000000763446       0.000005344933
14 2       4.696060000000       2.348030000000       0.336000000000      -0.000000302317       0.000001485426      -0.065684996258
15 2       4.696060000000       7.044090000000       4.360060000000       0.000000763446       0.000005344933       0.065648248522
16 2       7.044090000000       0.336000000000       0.000000000000      -0.000000693792      -0.065688374185      -0.000022899121
17 2       2.348030000000       7.044090000000       7.044090000000      -0.000002559614       0.000004309664       0.000003526417
18 2       2.348030000000       9.056120000000       0.000000000000      -0.000004297904       0.065674141289      -0.000017743459
19 2       4.696060000000       2.348030000000       5.032060000000       0.000005919118       0.000001740828      -0.065644497166
20 2       4.696060000000       7.044090000000       9.056120000000       0.000004853345       0.000005089536       0.065668005462
21 2       5.032060000000       4.696060000000       2.348030000000      -0.065644497166       0.000005919118       0.000001740828
22 2       5.032060000000       0.000000000000       7.044090000000      -0.065647875111      -0.000018809200       0.000011128287
23 2       7.044090000000       9.056120000000       4.696060000000       0.000005089536       0.065668005462       0.000004853345
24 2       7.044090000000       2.348030000000       7.044090000000       0.000003526417      -0.000002559614       0.000004309664
25 2       7.044090000000       7.044090000000       7.044090000000       0.000003533629       0.000003533629       0.000003533629
26 2       7.044090000000       7.044090000000       2.348030000000       0.000004309664       0.000003526417      -0.000002559614
27 2       7.044090000000       5.032060000000       0.000000000000       0.000011128287      -0.065647875111      -0.000018809200
28 2       9.056120000000       4.696060000000       7.044090000000       0.065668005462       0.000004853345       0.000005089536
29 2       9.056120000000       0.000000000000       2.348030000000       0.065674141289      -0.000017743459      -0.000004297904
30 2       0.000000000000       7.044090000000       5.032060000000      -0.000018809200       0.000011128287      -0.065647875111
31 2       0.000000000000       2.348030000000       9.056120000000      -0.000017743459      -0.000004297904       0.065674141289
32 2       2.348030000000       5.032060000000       4.696060000000       0.000001740828      -0.065644497166       0.000005919118
33 1       8.311610000000       5.737090000000       1.483270000000      -0.064960862233       0.003120777368       0.051265486427
34 1       8.311610000000       3.655030000000       3.212790000000      -0.064962009339      -0.003121509837      -0.051278223633
35 1       8.351090000000       1.483270000000       1.080510000000      -0.003106427932       0.051272914815       0.064957391498
36 1       8.351090000000       3.212790000000       5.776570000000      -0.003111285620      -0.051280372245       0.064982591323
37 1       1.041030000000       3.212790000000       1.080510000000       0.003114926730      -0.051279853368       0.064968019648
38 1       1.041030000000       1.483270000000       5.776570000000       0.003125423680       0.051262296543       0.064990701927
39 1       1.080510000000       8.351090000000       1.483270000000       0.064957391498      -0.003106427932       0.051272914815
40 1       1.080510000000       1.041030000000       3.212790000000       0.064968019648       0.003114926730      -0.051279853368
41 1       1.483270000000       5.776570000000       1.041030000000       0.051262296543       0.064990701927       0.003125423680
42 1       1.483270000000       3.615550000000       3.655030000000       0.051260046479      -0.064993592791      -0.003132545750
43 1       1.483270000000       1.080510000000       8.351090000000       0.051272914815       0.064957391498      -0.003106427932
44 1       1.483270000000       8.311610000000       5.737090000000       0.051265486427      -0.064960862233       0.003120777368
45 1       3.212790000000       3.615550000000       5.737090000000      -0.051272323548      -0.064994963224       0.003126174026
46 1       3.212790000000       1.080510000000       1.041030000000      -0.051279853368       0.064968019648       0.003114926730
47 1       3.212790000000       8.311610000000       3.655030000000      -0.051278223633      -0.064962009339      -0.003121509837
48 1       3.212790000000       5.776570000000       8.351090000000      -0.051280372245       0.064982591323      -0.003111285620
49 1       3.615550000000       3.655030000000       1.483270000000      -0.064993592791      -0.003132545750       0.051260046479
50 1       3.615550000000       5.737090000000       3.212790000000      -0.064994963224       0.003126174026      -0.051272323548
51 1       3.655030000000       1.483270000000       3.615550000000      -0.003132545750       0.051260046479      -0.064993592791
52 1       3.655030000000       3.212790000000       8.311610000000      -0.003121509837      -0.051278223633      -0.064962009339
53 1       5.737090000000       1.483270000000       8.311610000000       0.003120777368       0.051265486427      -0.064960862233
54 1       5.737090000000       3.212790000000       3.615550000000       0.003126174026      -0.051272323548      -0.064994963224
55 1       5.776570000000       8.351090000000       3.212790000000       0.064982591323      -0.003111285620      -0.051280372245
56 1       5.776570000000       1.041030000000       1.483270000000       0.064990701927       0.003125423680       0.051262296543
57 1       3.615550000000       1.041030000000       6.179330000000      -0.064996007351       0.003122695766       0.051271906421
58 1       3.615550000000       8.351090000000       7.908850000000      -0.064986641805      -0.003112790149      -0.051264015608
59 1       3.655030000000       6.179330000000       5.776570000000      -0.003130164982       0.051269589664       0.064991092264
60 1       3.655030000000       7.908850000000       1.080510000000      -0.003123900441      -0.051261179982       0.064967155040
61 1       5.737090000000       7.908850000000       5.776570000000       0.003128025687      -0.051255900202       0.064991207768
62 1       5.737090000000       6.179330000000       1.080510000000       0.003118935555       0.051274409295       0.064967262861
63 1       5.776570000000       3.655030000000       6.179330000000       0.064991092264      -0.003130164982       0.051269589664
64 1       5.776570000000       5.737090000000       7.908850000000       0.064991207768       0.003128025687      -0.051255900202
65 1       6.179330000000       1.080510000000       5.737090000000       0.051274409295       0.064967262861       0.003118935555
66 1       6.179330000000       8.311610000000       8.351090000000       0.051283145003      -0.064953795751      -0.003103161049
67 1       6.179330000000       5.776570000000       3.655030000000       0.051269589664       0.064991092264      -0.003130164982
68 1       6.179330000000       3.615550000000       1.041030000000       0.051271906421      -0.064996007351       0.003122695766
69 1       7.908850000000       8.311610000000       1.041030000000      -0.051264117058      -0.064963168961       0.003115892279
70 1       7.908850000000       5.776570000000       5.737090000000      -0.051255900202       0.064991207768       0.003128025687
71 1       7.908850000000       3.615550000000       8.351090000000      -0.051264015608      -0.064986641805      -0.003112790149
72 1       7.908850000000       1.080510000000       3.655030000000      -0.051261179982       0.064967155040      -0.003123900441
73 1       8.311610000000       8.351090000000       6.179330000000      -0.064953795750      -0.003103161049       0.051283145003
74 1       8.311610000000       1.041030000000       7.908850000000      -0.064963168961       0.003115892279      -0.051264117058
75 1       8.351090000000       6.179330000000       8.311610000000      -0.003103161049       0.051283145003      -0.064953795751
76 1       8.351090000000       7.908850000000       3.615550000000      -0.003112790148      -0.051264015608      -0.064986641805
77 1       1.041030000000       6.179330000000       3.615550000000       0.003122695766       0.051271906421      -0.064996007351
78 1       1.041030000000       7.908850000000       8.311610000000       0.003115892279      -0.051264117058      -0.064963168961
79 1       1.080510000000       3.655030000000       7.908850000000       0.064967155040      -0.003123900441      -0.051261179982
80 1       1.080510000000       5.737090000000       6.179330000000       0.064967262861       0.003118935555       0.051274409295
