40
Config_type=bulk_kappa_phase Weight=1.0 Lattice="8.854943982 0.000000000 0.000000000 0.000000000 5.156511853 0.000000000 0.000000000 0.000000000 9.475050251" Energy=-340.47709180 Virial="-7.87457 0.00166 0.00076 0.00166 -8.59113 0.01717 0.00076 0.01717 -7.60800" pbc="T T T" Properties=species:S:1:pos:R:3:forces:R:3
Ga	      1.38638      1.59807      8.41747        -0.001832     -0.006919     -0.002329
Ga	      3.15081      4.17633      8.41747         0.002206     -0.008404     -0.002031
Ga	      5.83481      0.90834      7.56845        -0.002049     -0.008840     -0.000167
Ga	      7.55732      3.48660      7.56845         0.002628     -0.009305     -0.001038
Ga	      4.77031      3.49335      5.64917         0.000190     -0.005857     -0.001195
Ga	      1.48673      3.53960      5.77504         0.010469      0.016339     -0.005106
Ga	      3.05045      0.96135      5.77504        -0.011911      0.016736     -0.003939
Ga	      8.62182      0.91509      5.64918         0.000892     -0.006860     -0.001150
Ga	      1.40734      1.66967      2.83077        -0.003603      0.006784      0.001395
Ga	      3.12986      4.24793      2.83077         0.003723      0.007460      0.001368
Ga	      5.81311      0.98081      3.68005        -0.001020      0.008167     -0.001100
Ga	      7.57903      3.55907      3.68004         0.001207      0.008681     -0.001977
Ga	      4.19492      1.66366      0.91200         0.002402      0.005318     -0.001768
Ga	      5.91403      4.19515      1.03712         0.013266     -0.014379     -0.003357
Ga	      7.47811      1.61689      1.03712        -0.014015     -0.014244     -0.002110
Ga	      0.34227      4.24192      0.91200        -0.001546      0.004493     -0.000792
O	      7.39361      1.79216      4.46255         0.003171     -0.012430     -0.007195
O	      0.04204      0.78400      0.05259         0.011275      0.000751      0.011601
O	      7.42293      0.08906      7.00153        -0.003323     -0.003422      0.002112
O	      7.34635      5.00373      2.14174         0.000754     -0.018266     -0.000298
O	      5.99852      4.37041      4.46255        -0.003771     -0.012149     -0.007438
O	      7.50830      3.37136      9.45619         0.002018     -0.009083     -0.004503
O	      5.96920      2.66732      7.00153         0.003340     -0.004040      0.002332
O	      6.04579      2.42548      2.14175        -0.000980     -0.017878     -0.000477
O	      1.45592      1.78504      4.71878        -0.000147      0.007957     -0.005948
O	      2.96683      0.78674      9.20021         0.001894      0.011409     -0.006495
O	      1.61978      0.15163      6.88014        -0.003937      0.019755      0.000715
O	      1.54181      5.06715      2.26415         0.002845      0.005311      0.002138
O	      0.06803      4.37304      4.79035        -0.009684     -0.001861      0.011538
O	      1.57036      3.36500      9.20021        -0.002257      0.010938     -0.006552
O	      0.15042      2.45405      6.95179        -0.004524     -0.003269      0.005388
O	      8.81394      2.70200      2.21458         0.003179      0.003936      0.003625
O	      4.46916      1.79479      4.79036         0.010036     -0.002528      0.011514
O	      5.88383      0.79310      9.45619        -0.001587     -0.008686     -0.004734
O	      4.38677      5.03230      6.95179         0.003756     -0.003256      0.005646
O	      4.57820      0.12374      2.21458        -0.003602      0.004104      0.004001
O	      3.08127      4.36329      4.71878         0.000480      0.008480     -0.005527
O	      4.49515      3.36226      0.05259        -0.010963      0.000817      0.011488
O	      2.91740      2.72988      6.88015         0.003812      0.019323      0.000375
O	      2.99539      2.48889      2.26415        -0.002793      0.004916      0.001993
