ITEM: TIMESTEP
0
ITEM: NUMBER OF ATOMS
80
ITEM: BOX BOUNDS pp pp pp
0.0000000000000000e+00 9.2603694420000000e+00
0.0000000000000000e+00 9.2603694420000000e+00
0.0000000000000000e+00 9.2603694420000000e+00
ITEM: ATOMS id type v_vir_xx v_vir_yy v_vir_zz v_vir_xy v_vir_xz v_vir_yz
1 2      -7.118507526567      -7.118505954111      -7.118486353641      -1.408094273218       1.408105786538       1.408092918280
2 2      -6.228695697642      -6.466050795959      -6.444283944324       0.000005227654       0.487190137496      -0.000006124503
3 2      -6.444244648239      -6.228753092670      -6.466006095514       0.487180222257       0.000020765445       0.000007643012
4 2      -6.444242947431      -6.228745436960      -6.466113992595      -0.487165682351      -0.000017942598       0.000006296766
5 2      -6.466006095514      -6.444244648239      -6.228753092670       0.000020765445       0.000007643012       0.487180222257
6 2      -6.466014972242      -6.444301246167      -6.228713540629       0.000003298177       0.000006566333      -0.487208116215
7 2      -6.228745436960      -6.466113992595      -6.444242947431       0.000006296766      -0.487165682351      -0.000017942598
8 2      -7.118486353641      -7.118507526567      -7.118505954111       1.408105786538       1.408092918280      -1.408094273218
9 2      -7.118514698310      -7.118514698310      -7.118514698310      -1.408094542961      -1.408094542961      -1.408094542961
10 2      -7.118505954111      -7.118486353641      -7.118507526567       1.408092918280      -1.408094273218       1.408105786538
11 2      -6.228713540629      -6.466014972242      -6.444301246167       0.000006566333      -0.487208116215       0.000003298177
12 2      -6.466113992595      -6.444242947431      -6.228745436960      -0.000017942598       0.000006296766      -0.487165682351
13 2      -6.466050795959      -6.444283944324      -6.228695697642      -0.000006124503       0.000005227654       0.487190137496
14 2      -6.444301246167      -6.228713540629      -6.466014972242      -0.487208116215       0.000003298177       0.000006566333
15 2      -6.444283944324      -6.228695697642      -6.466050795959       0.487190137496      -0.000006124503       0.000005227654
16 2      -6.228753092670      -6.466006095514      -6.444244648239       0.000007643012       0.487180222257       0.000020765445
17 2      -7.118477613894      -7.118479183644      -7.118498786415      -1.408104162689       1.408092651019       1.408105518968
18 2      -6.228758456586      -6.466040885469      -6.444252124250       0.000008672020       0.487181780477       0.000017744211
19 2      -6.444270916802      -6.228681086521      -6.466092768902       0.487188094478      -0.000032381337      -0.000021537799
20 2      -6.444293123325      -6.228708718111      -6.465977695547      -0.487206231188       0.000035209915      -0.000022882192
21 2      -6.466092768902      -6.444270916802      -6.228681086521      -0.000032381337      -0.000021537799       0.487188094478
22 2      -6.466083890391      -6.444214322510      -6.228720638049      -0.000020564493       0.000010013503      -0.487160202018
23 2      -6.228708718111      -6.465977695547      -6.444293123325      -0.000022882192      -0.487206231188       0.000035209915
24 2      -7.118498786415      -7.118477613894      -7.118479183644       1.408092651019       1.408105518968      -1.408104162689
25 2      -7.118470445828      -7.118470445828      -7.118470445828      -1.408103897050      -1.408103897050      -1.408103897050
26 2      -7.118479183644      -7.118498786415      -7.118477613894       1.408105518968      -1.408104162689       1.408092651019
27 2      -6.228720638049      -6.466083890391      -6.444214322510       0.000010013503      -0.487160202018      -0.000020564493
28 2      -6.465977695547      -6.444293123325      -6.228708718111       0.000035209915      -0.000022882192      -0.487206231188
29 2      -6.466040885469      -6.444252124250      -6.228758456586       0.000017744211       0.000008672020       0.487181780477
30 2      -6.444214322510      -6.228720638049      -6.466083890391      -0.487160202018      -0.000020564493       0.000010013503
31 2      -6.444252124250      -6.228758456586      -6.466040885469       0.487181780477       0.000017744211       0.000008672020
32 2      -6.228681086521      -6.466092768902      -6.444270916802      -0.000021537799       0.487188094478      -0.000032381337
33 1       3.478752129051       3.619965618153       3.060966910120      -0.492871383454       0.761649642146       0.096436124851
34 1       3.478760765905       3.619960285864       3.060971452777       0.492865314866      -0.761640768860       0.096458824347
35 1       3.619954284010       3.060986278397       3.478756487130      -0.096474961961      -0.492847691888      -0.761638857138
36 1       3.619937439624       3.060975736551       3.478778591578       0.096477656958      -0.492871931878       0.761635741583
37 1       3.619963337094       3.060996519649       3.478776431978      -0.096484521405       0.492850694389       0.761641567127
38 1       3.619950202351       3.060973689124       3.478770009669       0.096471978193       0.492859512645      -0.761637221107
39 1       3.478756487130       3.619954284010       3.060986278397      -0.492847691888      -0.761638857138      -0.096474961961
40 1       3.478776431978       3.619963337094       3.060996519649       0.492850694389       0.761641567127      -0.096484521405
41 1       3.060973689124       3.478770009669       3.619950202351      -0.761637221107       0.096471978193       0.492859512645
42 1       3.060954795906       3.478742718240       3.619954296478       0.761642652212      -0.096449320286       0.492877819050
43 1       3.060986278397       3.478756487130       3.619954284010      -0.761638857138      -0.096474961961      -0.492847691888
44 1       3.060966910120       3.478752129051       3.619965618153       0.761649642146       0.096436124851      -0.492871383454
45 1       3.060962532318       3.478762599571       3.619955900638      -0.761652757539      -0.096441865146      -0.492899301092
46 1       3.060996519649       3.478776431978       3.619963337094       0.761641567127      -0.096484521405       0.492850694389
47 1       3.060971452777       3.478760765905       3.619960285864      -0.761640768860       0.096458824347       0.492865314866
48 1       3.060975736551       3.478778591578       3.619937439624       0.761635741583       0.096477656958      -0.492871931878
49 1       3.478742718240       3.619954296478       3.060954795906       0.492877819050       0.761642652212      -0.096449320286
50 1       3.478762599571       3.619955900638       3.060962532318      -0.492899301092      -0.761652757539      -0.096441865146
51 1       3.619954296478       3.060954795906       3.478742718240      -0.096449320286       0.492877819050       0.761642652212
52 1       3.619960285864       3.060971452777       3.478760765905       0.096458824347       0.492865314866      -0.761640768860
53 1       3.619965618153       3.060966910120       3.478752129051       0.096436124851      -0.492871383454       0.761649642146
54 1       3.619955900638       3.060962532318       3.478762599571      -0.096441865146      -0.492899301092      -0.761652757539
55 1       3.478778591578       3.619937439624       3.060975736551      -0.492871931878       0.761635741583       0.096477656958
56 1       3.478770009669       3.619950202351       3.060973689124       0.492859512645      -0.761637221107       0.096471978193
57 1       3.478773777466       3.619948630675       3.060986390246      -0.492872351195       0.761653640189       0.096485844036
58 1       3.478746945010       3.619941510918       3.060969757499       0.492867457885      -0.761645624206       0.096472249290
59 1       3.619938365195       3.060961887389       3.478770043035      -0.096460719900      -0.492879368377      -0.761642593334
60 1       3.619957145675       3.060966038923       3.478741040977       0.096453985357      -0.492853231748       0.761640406634
61 1       3.619945625301       3.060950948159       3.478754511910      -0.096433984482       0.492883542886       0.761646163895
62 1       3.619956822131       3.060980176135       3.478767825455       0.096450564867       0.492876612847      -0.761655810753
63 1       3.478770043035       3.619938365195       3.060961887389      -0.492879368377      -0.761642593334      -0.096460719900
64 1       3.478754511910       3.619945625301       3.060950948159       0.492883542886       0.761646163895      -0.096433984482
65 1       3.060980176135       3.478767825455       3.619956822131      -0.761655810753       0.096450564867       0.492876612847
66 1       3.060992817142       3.478771893507       3.619945580938       0.761649044425      -0.096485787012       0.492856854989
67 1       3.060961887389       3.478770043035       3.619938365195      -0.761642593334      -0.096460719900      -0.492879368377
68 1       3.060986390246       3.478773777466       3.619948630675       0.761653640189       0.096485844036      -0.492872351195
69 1       3.060984374027       3.478756415022       3.619960276805      -0.761645221719      -0.096476074179      -0.492842540151
70 1       3.060950948159       3.478754511910       3.619945625301       0.761646163895      -0.096433984482       0.492883542886
71 1       3.060969757499       3.478746945010       3.619941510918      -0.761645624206       0.096472249290       0.492867457885
72 1       3.060966038923       3.478741040977       3.619957145675       0.761640406634       0.096453985357      -0.492853231748
73 1       3.478771893507       3.619945580938       3.060992817142       0.492856854989       0.761649044425      -0.096485787012
74 1       3.478756415022       3.619960276805       3.060984374027      -0.492842540151      -0.761645221719      -0.096476074179
75 1       3.619945580938       3.060992817142       3.478771893507      -0.096485787012       0.492856854989       0.761649044425
76 1       3.619941510918       3.060969757499       3.478746945010       0.096472249290       0.492867457885      -0.761645624206
77 1       3.619948630675       3.060986390246       3.478773777466       0.096485844036      -0.492872351195       0.761653640189
78 1       3.619960276805       3.060984374027       3.478756415022      -0.096476074179      -0.492842540151      -0.761645221719
79 1       3.478741040977       3.619957145675       3.060966038923      -0.492853231748       0.761640406634       0.096453985357
80 1       3.478767825455       3.619956822131       3.060980176135       0.492876612847      -0.761655810753       0.096450564867
