ITEM: TIMESTEP
0
ITEM: NUMBER OF ATOMS
30
ITEM: BOX BOUNDS xy xz yz pp pp pp
-2.5824949469999998e+00 5.1649899140000004e+00 -2.5824949469999998e+00
0.0000000000000000e+00 4.4730129019999998e+00 0.0000000000000000e+00
0.0000000000000000e+00 1.3904522606000000e+01 0.0000000000000000e+00
ITEM: ATOMS id type v_vir_xx v_vir_yy v_vir_zz v_vir_xy v_vir_xz v_vir_yz
1 2      -2.257341856079      -2.257255618212      -0.477651243266      -0.000025574730       0.000001262762       0.000027599026
2 2      -2.257315386873      -2.257337059658      -0.477684503256       0.000035485721      -0.000012901974      -0.000017088209
3 2      -2.257283616037      -2.257302372504      -0.477682393693      -0.000005493720       0.000002949546       0.000018911635
4 2      -2.257279727633      -2.257290650770      -0.477561223967       0.000025074707      -0.000002978104       0.000004649087
5 2      -2.257285245731      -2.257324052663      -0.477742525862      -0.000000628022      -0.000000608978      -0.000028922402
6 2      -2.257290222476      -2.257257362603      -0.477553110398      -0.000009319633       0.000000421778       0.000002279705
7 2      -2.257278826794      -2.257346622956      -0.477750552105       0.000023756231      -0.000005310922      -0.000030141836
8 2      -2.257302714958      -2.257266210633      -0.477642244204      -0.000049020605       0.000006904615       0.000021237064
9 2      -2.257319881038      -2.257309512298      -0.477534324490       0.000007574063       0.000000749327      -0.000006397150
10 2      -2.257322034187      -2.257297098909      -0.477648037145      -0.000033566403       0.000002926075       0.000014653162
11 2      -2.257310751314      -2.257232373834      -0.477561095542      -0.000020185968       0.000000700357       0.000010059783
12 2      -2.257256967613      -2.257303032316      -0.477744821645       0.000002446675      -0.000007070007      -0.000016529898
13 1       2.326405149619       3.106287206314       1.474811411688      -0.675422456788       0.800760614124       0.462318250010
14 1       3.496247845841       1.936395770225       1.474832171419      -0.000017868012       0.000010583810      -0.924623773119
15 1       2.326378930349       3.106269572178       1.474805244417       0.675398024639      -0.800746233199       0.462315240261
16 1       2.326367451568       3.106210908278       1.474790606128      -0.675440496490       0.800747872365       0.462287642726
17 1       2.326363907207       3.106285535476       1.474799641678       0.675432587452      -0.800739858963       0.462339139798
18 1       3.496152100878       1.936374830500       1.474783475543      -0.000004018280      -0.000005116067      -0.924621586787
19 1       2.326297972208       3.106292225703       1.474802380402      -0.675376738067       0.800746125696       0.462340474441
20 1       3.496227074111       1.936418540030       1.474790526447      -0.000008846679       0.000002609191      -0.924632191630
21 1       2.326344950657       3.106232317037       1.474821249978       0.675447180177      -0.800762239258       0.462282505158
22 1       2.326284919221       3.106310583723       1.474806217393      -0.675415630119       0.800731533560       0.462336879117
23 1       2.326361469101       3.106218704683       1.474805298109       0.675439167682      -0.800761804245       0.462276703729
24 1       3.496193573282       1.936425994174       1.474804222268      -0.000016831728       0.000012402690      -0.924619559141
25 1       2.326391577404       3.106217477166       1.474837358263      -0.675436029986       0.800768424099       0.462288508983
26 1       3.496254107202       1.936423771941       1.474838190868       0.000023737280      -0.000013371520      -0.924643857630
27 1       2.326377647055       3.106296784866       1.474813892137       0.675413761506      -0.800772311338       0.462339129864
28 1       2.326391120688       3.106282178290       1.474806625914      -0.675381379407       0.800746261378       0.462324825153
29 1       2.326358805106       3.106284595787       1.474801301769       0.675418060261      -0.800739097275       0.462315865271
30 1       3.496260038963       1.936399012975       1.474799832988       0.000003976064       0.000000543465      -0.924633944121
