ITEM: TIMESTEP
0
ITEM: NUMBER OF ATOMS
80
ITEM: BOX BOUNDS pp pp pp
0.0000000000000000e+00 9.5238758899999993e+00
0.0000000000000000e+00 9.5238758899999993e+00
0.0000000000000000e+00 9.5238758899999993e+00
ITEM: ATOMS id type x y z fx fy fz
1 2       7.142910000000       2.380970000000       2.380970000000      -0.000041183685       0.000000716750      -0.000010867625
2 2       7.142910000000       4.415860000000       4.761940000000      -0.000031260186      -0.043100836919      -0.000004058395
3 2       0.000000000000       7.142910000000       0.346080000000       0.000001817855      -0.000023898528       0.043081777931
4 2       0.000000000000       2.380970000000       4.415860000000       0.000014316759      -0.000003179628      -0.043117674865
5 2       0.346080000000       0.000000000000       7.142910000000       0.043081777931       0.000001817855      -0.000023898528
6 2       0.346080000000       4.761940000000       2.380970000000       0.043091470458       0.000008439539       0.000004180524
7 2       2.380970000000       4.415860000000       0.000000000000      -0.000003179628      -0.043117674865       0.000014316759
8 2       2.380970000000       7.142910000000       2.380970000000      -0.000010867625      -0.000041183685       0.000000716750
9 2       2.380970000000       2.380970000000       2.380970000000       0.000001438781       0.000001438781       0.000001438781
10 2       2.380970000000       2.380970000000       7.142910000000       0.000000716750      -0.000010867625      -0.000041183685
11 2       2.380970000000       0.346080000000       4.761940000000       0.000004180524       0.043091470458       0.000008439539
12 2       4.415860000000       0.000000000000       2.380970000000      -0.043117674865       0.000014316759      -0.000003179628
13 2       4.415860000000       4.761940000000       7.142910000000      -0.043100836919      -0.000004058395      -0.000031260186
14 2       4.761940000000       2.380970000000       0.346080000000       0.000008439539       0.000004180524       0.043091470458
15 2       4.761940000000       7.142910000000       4.415860000000      -0.000004058395      -0.000031260186      -0.043100836919
16 2       7.142910000000       0.346080000000       0.000000000000      -0.000023898528       0.043081777931       0.000001817855
17 2       2.380970000000       7.142910000000       7.142910000000       0.000025014929      -0.000041342984      -0.000017765965
18 2       2.380970000000       9.177800000000       0.000000000000       0.000012599835      -0.043143693899       0.000004476336
19 2       4.761940000000       2.380970000000       5.108020000000      -0.000001406008       0.000005235792       0.043098614303
20 2       4.761940000000       7.142910000000       9.177800000000       0.000011095011      -0.000032317720      -0.043126855940
21 2       5.108020000000       4.761940000000       2.380970000000       0.043098614303      -0.000001406008       0.000005235792
22 2       5.108020000000       0.000000000000       7.142910000000       0.043088921685       0.000016972726      -0.000039673826
23 2       7.142910000000       9.177800000000       4.761940000000      -0.000032317720      -0.043126855940       0.000011095011
24 2       7.142910000000       2.380970000000       7.142910000000      -0.000017765965       0.000025014929      -0.000041342984
25 2       7.142910000000       7.142910000000       7.142910000000      -0.000029600190      -0.000029600190      -0.000029600190
26 2       7.142910000000       7.142910000000       2.380970000000      -0.000041342984      -0.000017765965       0.000025014929
27 2       7.142910000000       5.108020000000       0.000000000000      -0.000039673826       0.043088921685       0.000016972726
28 2       9.177800000000       4.761940000000       7.142910000000      -0.043126855940       0.000011095011      -0.000032317720
29 2       9.177800000000       0.000000000000       2.380970000000      -0.043143693899       0.000004476336       0.000012599835
30 2       0.000000000000       7.142910000000       5.108020000000       0.000016972726      -0.000039673826       0.043088921685
31 2       0.000000000000       2.380970000000       9.177800000000       0.000004476336       0.000012599835      -0.043143693899
32 2       2.380970000000       5.108020000000       4.761940000000       0.000005235792       0.043098614303      -0.000001406008
33 1       8.445490000000       5.835800000000       1.510970000000      -0.058863434252       0.017270429279       0.028779273324
34 1       8.445490000000       3.688080000000       3.250970000000      -0.058875686132      -0.017286588410      -0.028793173262
35 1       8.450020000000       1.510970000000       1.078380000000      -0.017354831263       0.028758561948       0.059004097278
36 1       8.450020000000       3.250970000000       5.840320000000      -0.017329179517      -0.028776776217       0.058979481180
37 1       1.073860000000       3.250970000000       1.078380000000       0.017325199168      -0.028780779868       0.058997741271
38 1       1.073860000000       1.510970000000       5.840320000000       0.017315720453       0.028758473215       0.058972616196
39 1       1.078380000000       8.450020000000       1.510970000000       0.059004097278      -0.017354831263       0.028758561948
40 1       1.078380000000       1.073860000000       3.250970000000       0.058997741271       0.017325199168      -0.028780779868
41 1       1.510970000000       5.840320000000       1.073860000000       0.028758473215       0.058972616196       0.017315720453
42 1       1.510970000000       3.683560000000       3.688080000000       0.028763210013      -0.059003248428      -0.017334496027
43 1       1.510970000000       1.078380000000       8.450020000000       0.028758561948       0.059004097278      -0.017354831263
44 1       1.510970000000       8.445490000000       5.835800000000       0.028779273324      -0.058863434252       0.017270429279
45 1       3.250970000000       3.683560000000       5.835800000000      -0.028789829259      -0.058991503138       0.017302164241
46 1       3.250970000000       1.078380000000       1.073860000000      -0.028780779868       0.058997741271       0.017325199168
47 1       3.250970000000       8.445490000000       3.688080000000      -0.028793173262      -0.058875686132      -0.017286588410
48 1       3.250970000000       5.840320000000       8.450020000000      -0.028776776217       0.058979481180      -0.017329179517
49 1       3.683560000000       3.688080000000       1.510970000000      -0.059003248428      -0.017334496027       0.028763210013
50 1       3.683560000000       5.835800000000       3.250970000000      -0.058991503138       0.017302164241      -0.028789829259
51 1       3.688080000000       1.510970000000       3.683560000000      -0.017334496027       0.028763210013      -0.059003248428
52 1       3.688080000000       3.250970000000       8.445490000000      -0.017286588410      -0.028793173262      -0.058875686132
53 1       5.835800000000       1.510970000000       8.445490000000       0.017270429279       0.028779273324      -0.058863434252
54 1       5.835800000000       3.250970000000       3.683560000000       0.017302164241      -0.028789829259      -0.058991503138
55 1       5.840320000000       8.450020000000       3.250970000000       0.058979481180      -0.017329179517      -0.028776776217
56 1       5.840320000000       1.073860000000       1.510970000000       0.058972616196       0.017315720453       0.028758473215
57 1       3.683560000000       1.073860000000       6.272900000000      -0.059001112990       0.017286684928       0.028868810550
58 1       3.683560000000       8.450020000000       8.012910000000      -0.059008048273      -0.017322183925      -0.028810861549
59 1       3.688080000000       6.272900000000       5.840320000000      -0.017279820367       0.028861251374       0.058963750347
60 1       3.688080000000       8.012910000000       1.078380000000      -0.017311339167      -0.028807303699       0.058988948349
61 1       5.835800000000       8.012910000000       5.840320000000       0.017269527440      -0.028811619142       0.058952076533
62 1       5.835800000000       6.272900000000       1.078380000000       0.017273136659       0.028869661000       0.058976617366
63 1       5.840320000000       3.688080000000       6.272900000000       0.058963750347      -0.017279820367       0.028861251374
64 1       5.840320000000       5.835800000000       8.012910000000       0.058952076533       0.017269527440      -0.028811619142
65 1       6.272900000000       1.078380000000       5.835800000000       0.028869661000       0.058976617366       0.017273136659
66 1       6.272900000000       8.445490000000       8.450020000000       0.028876557530      -0.058879906695      -0.017268414947
67 1       6.272900000000       5.840320000000       3.688080000000       0.028861251374       0.058963750347      -0.017279820367
68 1       6.272900000000       3.683560000000       1.073860000000       0.028868810550      -0.059001112990       0.017286684928
69 1       8.012910000000       8.445490000000       1.073860000000      -0.028822522701      -0.058873623540       0.017260820271
70 1       8.012910000000       5.840320000000       5.835800000000      -0.028811619142       0.058952076533       0.017269527440
71 1       8.012910000000       3.683560000000       8.450020000000      -0.028810861549      -0.059008048273      -0.017322183925
72 1       8.012910000000       1.078380000000       3.688080000000      -0.028807303699       0.058988948349      -0.017311339167
73 1       8.445490000000       8.450020000000       6.272900000000      -0.058879906695      -0.017268414947       0.028876557530
74 1       8.445490000000       1.073860000000       8.012910000000      -0.058873623540       0.017260820271      -0.028822522701
75 1       8.450020000000       6.272900000000       8.445490000000      -0.017268414947       0.028876557530      -0.058879906695
76 1       8.450020000000       8.012910000000       3.683560000000      -0.017322183925      -0.028810861549      -0.059008048273
77 1       1.073860000000       6.272900000000       3.683560000000       0.017286684928       0.028868810550      -0.059001112990
78 1       1.073860000000       8.012910000000       8.445490000000       0.017260820271      -0.028822522701      -0.058873623540
79 1       1.078380000000       3.688080000000       8.012910000000       0.058988948349      -0.017311339167      -0.028807303699
80 1       1.078380000000       5.835800000000       6.272900000000       0.058976617366       0.017273136659       0.028869661000
