30
Config_type=bulk_alpha_phase Weight=1.0 Lattice="5.033333309 0.000000000 0.000000000 -2.516666654 4.358994926 0.000000000 0.000000000 0.000000000 13.550093598" Energy=-255.07060960 Virial="7.28168 -0.00002 -0.00001 -0.00002 7.28159 -0.00000 -0.00001 -0.00000 6.44628" pbc="T T T" Properties=species:S:1:pos:R:3:forces:R:3
Ga	      0.00000      0.00000      1.95310         0.000013      0.000032     -0.018957
Ga	      0.00000      2.90600      0.30525        -0.000001     -0.000081      0.018880
Ga	      2.51667      1.45300      2.56359        -0.000090     -0.000034      0.018950
Ga	      0.00000      2.90600      4.21145        -0.000016     -0.000075     -0.018912
Ga	      2.51667      1.45300      6.46979        -0.000094      0.000013     -0.018750
Ga	      0.00000      0.00000      4.82195        -0.000021      0.000036      0.018898
Ga	      0.00000      2.90600      7.08030         0.000013     -0.000059      0.018910
Ga	      0.00000      0.00000      8.72815         0.000017      0.000004     -0.019003
Ga	      0.00000      2.90600     10.98650         0.000011     -0.000073     -0.018979
Ga	      2.51667      1.45300      9.33864        -0.000051     -0.000024      0.018904
Ga	      0.00000      0.00000     11.59699        -0.000017      0.000051      0.018952
Ga	      2.51667      1.45300     13.24484        -0.000109     -0.000016     -0.018896
O	      4.27076      1.32080      3.38752        -0.005236      0.009284      0.000072
O	      1.52513      0.00000      3.38752         0.010655      0.000002      0.000046
O	      1.75410      3.03819      3.38752        -0.005337     -0.009187      0.000078
O	      3.27923      0.13219      1.12917         0.005345     -0.009084      0.000064
O	      3.27923      2.77380      1.12917         0.005361      0.009181      0.000043
O	      0.99154      1.45300      1.12917        -0.010683     -0.000016      0.000045
O	      1.75410      2.77380      7.90422        -0.005283      0.009211      0.000024
O	      4.04180      1.45300      7.90422         0.010599     -0.000032      0.000023
O	      1.75410      0.13219      7.90422        -0.005304     -0.009096      0.000026
O	      0.76256      1.58520      5.64588         0.005319     -0.009241     -0.000140
O	      0.76256      4.22680      5.64588         0.005417      0.009151     -0.000169
O	     -1.52513      2.90600      5.64588        -0.010621      0.000025     -0.000150
O	     -0.76257      4.22680     12.42092        -0.005214      0.009165      0.000023
O	      1.52513      2.90600     12.42092         0.010539     -0.000014     -0.000013
O	     -0.76257      1.58520     12.42092        -0.005181     -0.009212     -0.000036
O	      3.27923      3.03819     10.16257         0.005314     -0.009151      0.000013
O	      0.76257      1.32080     10.16257         0.005217      0.009257      0.000040
O	      3.50820      0.00000     10.16257        -0.010562     -0.000018      0.000013
