ITEM: TIMESTEP
0
ITEM: NUMBER OF ATOMS
160
ITEM: BOX BOUNDS pp pp pp
0.0000000000000000e+00 8.4170517050000004e+00
0.0000000000000000e+00 8.4170517050000004e+00
0.0000000000000000e+00 2.5251155113999999e+01
ITEM: ATOMS id type v_vir_xx v_vir_yy v_vir_zz v_vir_xy v_vir_xz v_vir_yz
1 2      -2.954417873316      -0.820973567176      -0.886879772488       0.027820998589      -0.214245289220      -0.139569429981
2 2      -3.112994910939      -2.238281562011      -2.791378234468      -0.292493602148       0.407937990237       0.162744635272
3 2      -2.073395763812      -2.985402456143      -2.554783153452       0.372705425033       0.493915623339       0.001297702282
4 2      -0.601479119742      -2.658389079685      -2.663945901591       0.243436234628      -0.254886877620       0.531598520418
5 2      -2.713499324318      -0.668641067656      -2.503948034055       0.083121415082      -0.101459768593       0.085979889843
6 2      -2.898982179252      -0.903245299938      -1.472551178952       0.262893249520      -0.062626183194      -0.289137816413
7 2      -2.216611288376      -3.242983010225      -0.935960775703      -0.647339512486       0.060114437762      -0.076278780776
8 2      -0.463518049406      -3.584918789156      -2.616894878724       0.097820338336      -0.246610635333      -0.346333029686
9 2      -3.553500197688      -2.356512896923      -0.867546055119      -0.575940666695       0.070082934258      -0.314122287454
10 2      -2.197839468532      -3.040238282227      -2.591116199379       0.363427956932       0.144254060611      -0.282132714387
11 2      -3.629361686413      -0.834704555967      -2.812507076685      -0.015184234235       0.276569732861      -0.103171072980
12 2      -0.521829336803      -2.665712041411      -2.606540815959       0.033188987752       0.472302071980       0.451778479191
13 2      -1.069751410816      -2.929831125063      -1.691930200654      -0.329573154442       0.549725441589      -0.179511189954
14 2      -2.642326971693      -0.654814920417      -2.562798927380       0.103850399156      -0.084137426520       0.046787907189
15 2      -3.091375110603      -2.098368150985      -2.540043420997       0.414342148590       0.159206957826       0.428773329777
16 2      -0.161620706585      -3.423861458787      -2.861873796125      -0.138925499934      -0.276507600592      -0.083096533753
17 2      -3.073301760046      -2.413523342244      -0.990373266583       0.548025715775       0.001622976649       0.105755494837
18 2      -0.873839105415      -2.960891475751      -1.469890620005       0.126970137297      -0.234067582313      -0.300165101163
19 2      -2.240587284958      -3.224790728405      -0.962089747376      -0.638813823283       0.103596126453      -0.057615728094
20 2      -3.502898821706      -0.270836188040      -2.891246981503       0.208536329593       0.218641741400       0.516938024808
21 2      -1.801670978638      -1.927367491414       0.372189084881      -0.455233374436       0.113056774383       0.142512486675
22 2      -1.239594397433      -1.370917947670      -3.117394514636      -0.496769201217      -0.463796671451       0.279462405820
23 2      -2.894185476100      -0.050785310205       0.090144168372      -0.068757366542       0.264696649013       0.484875387381
24 2      -1.880883416892      -2.627603401148      -2.295610434298      -0.641898869927       1.139254892395       0.962266526255
25 2      -2.722379469337      -0.654257984141      -1.230671077596      -0.236841434935       0.257714194297       0.953983215283
26 2      -1.591157790585       0.511368940398      -1.422875947423       0.231585067783       0.145546882379      -0.582074676702
27 2      -1.410413642084       0.932830900227      -1.799999713354      -0.325246234456       0.193589807178       0.226321598029
28 2      -2.407135405026      -2.182231676837      -2.448216346043       0.677283845956       1.042236239486      -1.146352730173
29 2       0.403884940125      -1.454974184782      -1.308816531388       0.119685872011       0.422040711130      -0.399817375857
30 2       0.024192545920      -2.825816429754       0.289563044501       0.623914722164       0.108536947067       0.441657994982
31 2      -1.125175097052      -1.430993396923      -3.142184887680       0.349431778260       0.778100413587       0.179161009940
32 2      -1.062621869777      -1.029376547187      -3.214749270567       0.381742310991      -0.359389703983       0.268243828058
33 2      -2.244472475532      -2.336563377105      -2.790448297063       0.589711672902      -0.026357564640       0.844597608805
34 2      -2.427373271523      -2.175636278237      -3.096842827920      -0.595381659255      -0.003821733443       1.014054008900
35 2      -1.424974301651      -1.081242360216      -2.634043674437       0.294933509336       0.343026519489       0.801826988233
36 2      -2.603177049460      -1.023115461043      -1.280018758483       0.988710633309      -0.257279436407       0.213390302750
37 2      -1.620010491322      -1.939327745009       0.244386783697      -0.177178535329       0.649434021339       0.250874586718
38 2      -2.033658910729      -2.389092746458      -2.564119913575       0.473517350242      -0.410518810876       0.007933692357
39 2      -1.522625042182       0.796739079393      -1.746900024775       0.220190105534      -0.112606831033      -0.533646786459
40 2       0.631631324722      -1.732656202655      -1.900519676028      -0.209907580643      -0.296637855145      -0.025382293825
41 2      -2.442353319116      -2.213367079298      -1.734145827072       0.038549910650      -1.135322441256       1.147865579841
42 2      -1.211676234864      -2.479077751709      -0.342996257432       0.422514299242      -0.834840555402      -0.369225556693
43 2      -1.210789933363      -1.294176030826      -3.221702291874      -0.343913751316       0.769164137764      -0.016813158171
44 2      -2.151958459763      -2.601304203521      -2.753589171030       0.571278119096      -0.542546860983       0.085994809886
45 2      -2.462697835730      -2.132591809656      -2.754836918652       0.532641815657       0.153308055930      -0.567167259549
46 2      -2.362941526675      -2.249031874693      -2.404093284901      -0.379210641304       0.122178406049      -0.540524642645
47 2      -2.097998982353      -2.367455015926      -2.504751517700      -0.551143733345      -0.635905198886       0.043004853207
48 2      -1.167863769644      -2.569162100318      -0.667085335443      -0.362460832124      -0.924163968071       0.486066805286
49 2      -2.098401969905      -2.404115221502      -2.675564638390      -0.617748747210      -0.684957826833       0.156654294061
50 2       0.405132455809      -1.623304671829      -1.701527526804      -0.216235351113       0.505176524971       0.012228742541
51 2       0.624414943075      -1.570619107392      -1.707516213181       0.172571777496      -0.342351523678      -0.096580369512
52 2      -2.326425995842      -1.059177113523      -0.993217920293       0.109557425331       0.351574785877      -0.618481365738
53 2      -1.309431869530      -2.417684463092      -0.942858777696      -0.757593156209       0.130962767715      -0.468834467875
54 2      -2.314351526105      -1.052119956653      -0.929693123567       0.146031114978       0.396726427304      -0.609862811462
55 2      -1.135926017592      -0.994296482514      -2.550942048442      -0.251526485752       0.076180728881      -0.389334629656
56 2      -2.287936304370      -2.264877650319      -1.643671950215      -0.076848652552      -1.089278096918      -1.269408945096
57 2      -0.603734818800      -2.721431192620      -1.177457385087      -0.261291814101       1.002385191962       0.111101376500
58 2      -1.494302817568      -1.126646765361      -3.149922482855       0.413479932320       0.303578336089       0.717817426196
59 2      -1.078466375234      -1.019130421427      -2.617353682927      -0.292256080072       0.210207029741      -0.335191197346
60 2      -1.395307244995       0.852135686092      -1.814047658316      -0.314166768098       0.305126531454       0.115057983118
61 2       0.413763963160      -1.347634868511      -1.274267324078       0.000789407332       0.074417781215       1.077251481035
62 2      -1.159326432703       0.193572089615      -1.158458307676       0.026922614537       1.062824371812       0.182555045318
63 2       0.227171572336      -1.184532630362      -1.080791954480       0.081378459186       0.044253330411      -1.178156061736
64 2      -1.198872927828       0.345918619653      -1.194687261278       0.031727913743       1.101332025081       0.017671897561
65 1       2.525698975091       2.079788822325       1.877809215858       0.378458881767       0.126845103476       0.107748519220
66 1       2.004782819572       2.073343573160       2.516918464210       0.385893324239       0.297165169700       0.286780307935
67 1       0.054203563740       1.423588061766       2.108477584390      -0.295614580999      -0.229869935685      -0.577298696346
68 1       1.102695183505       1.421340987830      -0.275896320401       0.368624181019      -0.048107582778       0.025824456816
69 1       1.722012297729       0.385067042444       1.643201911840      -0.044643790952       0.391640676819      -0.093469415235
70 1       1.642889400225       0.326939594955       1.477220958088      -0.139686421118       0.403906616291      -0.237113274308
71 1       1.965228731326       2.028734996214       1.439756241671      -0.467706778193      -0.249112582595       0.316383592778
72 1       0.903702046508       1.301275521912       0.901583839881      -0.094618427510       0.223023283265      -0.005526119690
73 1       2.116220735079       1.972176277575       1.591389660789       0.415258482441      -0.533731667497      -0.343069962225
74 1       0.711075246136       1.343068521690       1.074040635053       0.233528867309       0.253480436298      -0.024648499818
75 1       1.731440773650       0.410433215890       1.634267441694      -0.043175663957       0.506974577379      -0.063898200791
76 1       2.055838164309       1.791207710550       1.743321939922      -0.630007029653       0.631104762818      -0.752276185043
77 1       0.882497431060       1.640537062134       0.522793439355      -0.145682459774      -0.268545433984       0.057062122174
78 1      -0.252641202692       1.537835551167       1.622684390338       0.090355440455      -0.240563107398       0.422374221667
79 1       1.684809680829       0.440166156329       1.735255860441       0.058907575083       0.445980307589      -0.006197375880
80 1       2.096582872325       1.954300900236       2.121685536106       0.668519503743       0.708595094580       0.741853228013
81 1       2.134555934397       1.997226395592       1.582367307818       0.426869756282      -0.554357409852      -0.333993180141
82 1       2.210452770268       2.016789250732       1.728135215347       0.258172601027      -0.372945484126      -0.274680134019
83 1       2.447442659251       2.106773219615       1.961874301777      -0.381453127317       0.146431661507      -0.378301176265
84 1       2.033756192201       1.884321265081       2.786854930454      -0.106741925838       0.347983147372      -0.538629872061
85 1       0.678987666146       1.342738733731       0.758881122943       0.050463552546      -0.434117931002      -0.012910008852
86 1       1.211407241886       1.424341675908      -0.171660545002       0.385940374939      -0.031495230587       0.011911932875
87 1       2.234074074863       2.310128556499       2.320512614749      -0.382800599240       0.349341282701      -0.230725708064
88 1       2.021510546526       1.923776824198       2.791740678557      -0.102207462479       0.359049542769      -0.652268416897
89 1       1.691333630453       2.187000903055       2.577647126590       0.061845641083       0.416470687913       0.635102146877
90 1       2.563157342892       2.074495786047       1.885760586364       0.377188993837       0.125836505648       0.114094110443
91 1       0.772071953920       1.228642014234       0.926509074117      -0.128836736019       0.235108876070      -0.013638976475
92 1       1.891620056221       2.022628890355       2.209146263387      -0.215029569310      -0.412167250801       0.441848365387
93 1      -0.358525347655       1.495129733976       1.603052610059       0.132261605635      -0.126795411046       0.370627135492
94 1       1.339056821398       1.478171723632       0.331524040695      -0.337652797457      -0.344576871950      -0.150910250971
95 1       2.076957406828       1.954137947399       2.052518224297       0.668425203630       0.716572347779       0.767175674648
96 1       1.770737898375       0.694535807906       1.402833797747       0.134137335287       0.132857609417       0.013028460708
97 1       0.694481949863       1.693249593010       1.330850333045       0.165590072280       0.220244094042       0.105996247662
98 1       1.886862761567       1.956446957573       1.861010089941       0.445619275135       0.639152685522       0.617680109433
99 1       2.173558320038       1.694771539645       1.670632909202       0.563393619844      -0.760371474020      -0.499215243555
100 1       1.320845283477       0.152744995696       2.180816377551      -0.211034081140      -0.581966673609      -0.350304489593
101 1       2.126759359190       2.289796686215       1.964987922667      -0.345533505959       0.313847486157      -0.524116016960
102 1       1.267407375839       0.664986030790       0.540243077400      -0.287340197144       0.247834804205       0.028985959044
103 1       0.993274799489       0.597166648772       1.042927205283      -0.009293477370      -0.172300670034      -0.130806678105
104 1       2.142451759694       2.377397855621       2.017933728783      -0.285330178917      -0.276186299449       0.106862611988
105 1       1.436898666845       0.632315739512       1.114720312780       0.173037659109      -0.006261157365       0.215582982840
106 1       1.817425064570       2.394681606708       2.036727609080       0.375826945112      -0.105911968587      -0.368983736473
107 1       1.586544334242       1.492598040480       0.474953875271      -0.353886099621       0.121001339837      -0.452272582693
108 1       0.477604861606       1.495552429142       2.039826863436       0.017622101394       0.062660150077      -0.534307517876
109 1       2.184172302028       1.741769348949       2.704049260644      -0.014906792365      -0.419256056592       0.323489909489
110 1       2.032732517260       1.883138873533       2.430567266149      -0.322194337655      -0.113707150797       0.062069157282
111 1       1.363572874531       1.652308310263       0.514963475424       0.327861963711       0.110104762768       0.417569177503
112 1       0.351062309407       1.801515224027       1.685774682980       0.105021728078       0.106124854517       0.430810984003
113 1       1.375425013643       0.755803710334       0.999968055669      -0.014753358733       0.192681146787      -0.421284547595
114 1       1.430220675758       1.483508088344       0.065684337877       0.228895110537       0.331122494775      -0.208577998260
115 1       2.076529023155       1.977981029866       2.609220387378      -0.138325660210       0.598851440550      -0.304493057764
116 1       2.086397690963       2.059672237200       1.575637058814      -0.538240668592       0.360039848586      -0.313919435364
117 1       1.832721074769       1.943585545695       1.978139330561       0.589331676690      -0.400147244331      -0.528248778284
118 1       2.170949357329       2.283734777258       1.816109662287       0.160494040641      -0.210417524308      -0.439246983398
119 1       1.315920079262       0.035353295233       2.055807813800       0.233572830444       0.610627470377      -0.408065746387
120 1       1.625326893147       0.894553151317       0.853824357083      -0.122830631316       0.209993317602      -0.456838271676
121 1       2.200395252599       2.178108972692       1.759905150313       0.517388813647       0.386051778857       0.375980860237
122 1       2.268161781002       1.764487887120       2.693344151190      -0.000318132032       0.690546926434       0.364867847235
123 1       0.519355481213       1.763075874189       1.220828364025      -0.088786765702       0.046619878362       0.191202988417
124 1       0.516596935289       1.860793422180       2.114268867801      -0.001056734764       0.144471036704       0.334784708228
125 1       1.706428185077       2.076806717480       1.698445416104      -0.603138286453      -0.716218657879       0.617774909840
126 1       1.586224273226      -0.177408874945       1.715819637079       0.150170360885      -0.393401342590       0.197543915287
127 1       2.090910686341       2.115513825100       2.692923245728       0.325308678945       0.297490979706       0.247782393831
128 1       2.198105430927       2.117357598178       1.894973978804       0.499728496010       0.352465449941       0.146732789901
129 1       1.475985269384      -0.396087018008       1.670667315871      -0.163280752460       0.473950021914       0.159058921906
130 1       1.824212198353       2.104723723951       2.559033020648       0.159382067614       0.214758337347       0.607350670476
131 1       0.658843721715       1.721334941766       0.836298278803       0.117848737461      -0.536420235560      -0.140955569622
132 1       2.337407002976       2.214578819634       2.181271452081       0.326638281065      -0.127596025172      -0.042558410396
133 1       2.059057316129       2.256497880126       2.302900643733      -0.532841409238       0.557759577852      -0.254862596616
134 1       1.795142878319       2.153630935770       2.112270828097      -0.618243691842       0.546642608523      -0.893835228335
135 1       1.855538385319       2.001556985690       2.351588027211      -0.244525166496      -0.404923546268       0.452078626637
136 1       1.606430371640       0.858983123326       0.664798385643      -0.163773573697       0.163917930996       0.535223880312
137 1       0.196636760038       1.605322715729       1.557506919816       0.121279621648       0.014925390587      -0.188962872410
138 1       2.144539076109       2.205167129644       2.040917018859       0.300837794012      -0.375337982854      -0.334244749215
139 1       2.286920681839       2.109304629329       2.229941694655      -0.345982406425       0.321824283510      -0.052803621727
140 1       1.722252562563       0.336856440065       1.567843708730      -0.161781857400       0.332179409494      -0.195153612666
141 1       1.416807896528       1.393689064442      -0.053076267958      -0.390527629630      -0.307773790764      -0.278521919475
142 1       1.701286184751       2.097380104985       1.403426123331      -0.479078615008      -0.282404268209       0.560781591126
143 1       1.804466442378       0.426652537788       1.206820139598       0.178164441625       0.247461129891       0.108661159792
144 1       2.116313426135       2.056475531772       2.328230507536       0.322650736116       0.541618907523       0.560263007580
145 1       0.530765420734       1.799686721669       2.300310789090       0.001279204257       0.109014489905      -0.268158523490
146 1       0.365541225297       1.207031583489       1.132830223437       0.053142238956       0.203874579492      -0.039471087698
147 1       2.323613433393       2.334362988188       2.355825422343      -0.405643058594       0.362201599024      -0.247222858237
148 1       0.425346829929       1.564154278912       1.503243751147      -0.071746069822       0.276958839699      -0.131000859894
149 1      -0.233715912681       1.601577485313       1.467710554291      -0.194270716960      -0.132069039248      -0.403393946787
150 1       1.924639017498       2.048652786837       2.669551848970       0.170320717958      -0.482148242976      -0.214010018225
151 1       2.607407013963       2.210321524461       1.991809108814      -0.234186576146       0.124821103209      -0.090200574907
152 1       2.121438972182       2.246912281793       1.834384242203      -0.532346005970       0.594432746910      -0.475011565083
153 1       1.969176895224       1.879419163017       2.396685942556       0.345618408284       0.255349181797       0.289527586061
154 1       1.678514436528       0.951466913670       0.604695418581       0.216859898945       0.231839960589       0.480348973600
155 1       1.495577920156       1.315622232142      -0.149966192189      -0.279810897909      -0.049056575154       0.128526852957
156 1       1.734774719241       1.983040289840       1.602358502398      -0.455107838692      -0.293119669122       0.630688455992
157 1       2.176263744669       2.033702870103       2.251100713736      -0.179488741160      -0.323434258302       0.451655297705
158 1       0.922474613723       1.614112816049       0.579370222384      -0.170872683206      -0.420933032604       0.119719839515
159 1       1.468579845009       0.800334195527       0.600045437729       0.167514674413       0.131565614808       0.093141627699
160 1       1.834058803451       0.500038783103       2.042230995699       0.018239115745       0.271278399457       0.164813721828
