ITEM: TIMESTEP
0
ITEM: NUMBER OF ATOMS
40
ITEM: BOX BOUNDS pp pp pp
0.0000000000000000e+00 8.9429652940000004e+00
0.0000000000000000e+00 5.2077694259999996e+00
0.0000000000000000e+00 9.5692356410000006e+00
ITEM: ATOMS id type c_pe_atom
1 2      -5.009765441277
2 2      -5.009754642112
3 2      -4.695830168322
4 2      -4.695832450785
5 2      -5.106119636443
6 2      -4.985929827183
7 2      -4.985929282476
8 2      -5.106129905852
9 2      -4.695792139118
10 2      -4.695786942744
11 2      -5.008557020947
12 2      -5.008552195591
13 2      -5.107286306752
14 2      -4.985718951424
15 2      -4.985727262378
16 2      -5.107293640536
17 1     -10.995515552148
18 1     -11.013739838385
19 1     -10.943387496597
20 1     -10.433713312665
21 1     -10.995526792565
22 1     -10.923424144777
23 1     -10.943394321784
24 1     -10.433696909772
25 1     -10.923217396882
26 1     -10.994703357204
27 1     -10.432360428041
28 1     -10.943314385602
29 1     -11.014130820056
30 1     -10.994713552992
31 1     -10.903902975677
32 1     -10.903851295868
33 1     -11.014116706559
34 1     -10.923424443356
35 1     -10.903898184901
36 1     -10.903847741785
37 1     -10.923216233502
38 1     -11.013753645477
39 1     -10.432345052096
40 1     -10.943325924768
