ITEM: TIMESTEP
0
ITEM: NUMBER OF ATOMS
80
ITEM: BOX BOUNDS pp pp pp
0.0000000000000000e+00 9.3544788879999992e+00
0.0000000000000000e+00 9.3544788879999992e+00
0.0000000000000000e+00 9.3544788879999992e+00
ITEM: ATOMS id type c_pe_atom
1 2      -5.713541978309
2 2      -5.417905524525
3 2      -5.417893800783
4 2      -5.417907869779
5 2      -5.417893800783
6 2      -5.417907988122
7 2      -5.417907869779
8 2      -5.713541978309
9 2      -5.713550100164
10 2      -5.713541978309
11 2      -5.417907988122
12 2      -5.417907869779
13 2      -5.417905524525
14 2      -5.417907988122
15 2      -5.417905524525
16 2      -5.417893800783
17 2      -5.713533856423
18 2      -5.417860292997
19 2      -5.417913790825
20 2      -5.417857947845
21 2      -5.417913790825
22 2      -5.417899603490
23 2      -5.417857947845
24 2      -5.713533856423
25 2      -5.713525734515
26 2      -5.713533856423
27 2      -5.417899603490
28 2      -5.417857947845
29 2      -5.417860292997
30 2      -5.417899603490
31 2      -5.417860292997
32 2      -5.417913790825
33 1      -6.233635267265
34 1      -6.233632021800
35 1      -6.233679832181
36 1      -6.233635026730
37 1      -6.233690897948
38 1      -6.233653751482
39 1      -6.233679832181
40 1      -6.233690897948
41 1      -6.233653751482
42 1      -6.233639711843
43 1      -6.233679832181
44 1      -6.233635267265
45 1      -6.233635298453
46 1      -6.233690897948
47 1      -6.233632021800
48 1      -6.233635026730
49 1      -6.233639711843
50 1      -6.233635298453
51 1      -6.233639711843
52 1      -6.233632021800
53 1      -6.233635267265
54 1      -6.233635298453
55 1      -6.233635026730
56 1      -6.233653751482
57 1      -6.233640042022
58 1      -6.233606591356
59 1      -6.233639686570
60 1      -6.233662107268
61 1      -6.233620547403
62 1      -6.233680078485
63 1      -6.233639686570
64 1      -6.233620547403
65 1      -6.233680078485
66 1      -6.233621286029
67 1      -6.233639686570
68 1      -6.233640042022
69 1      -6.233617626112
70 1      -6.233620547403
71 1      -6.233606591356
72 1      -6.233662107268
73 1      -6.233621286029
74 1      -6.233617626112
75 1      -6.233621286029
76 1      -6.233606591356
77 1      -6.233640042022
78 1      -6.233617626112
79 1      -6.233662107268
80 1      -6.233680078485
