ITEM: TIMESTEP
0
ITEM: NUMBER OF ATOMS
120
ITEM: BOX BOUNDS xy xz yz pp pp pp
-5.0637155920000003e+00 1.0127431204000001e+01 -5.0637155920000003e+00
0.0000000000000000e+00 8.7706135340000007e+00 0.0000000000000000e+00
0.0000000000000000e+00 1.3631884907000000e+01 0.0000000000000000e+00
ITEM: ATOMS id type x y z fx fy fz
1 2       0.000000000000       0.000000000000       1.964200000000      -0.000025825228       0.000030046901      -0.009119307967
2 2       0.000000003333       2.923540000000       0.307790000000      -0.000029881794      -0.000021886768       0.009062575682
3 2       2.531860001667       1.461770000000       2.579760000000       0.000027595244      -0.000017293250       0.009084753414
4 2       0.000000003333       2.923540000000       4.236190000000       0.000015733100       0.000000344731      -0.009124899336
5 2       2.531860001667       1.461770000000       6.508160000000      -0.000003223113      -0.000014978560      -0.009081129925
6 2       0.000000000000       0.000000000000       4.851740000000      -0.000046246170       0.000025577710       0.009135878047
7 2       0.000000003333       2.923540000000       7.123730000000      -0.000003057488      -0.000027871038       0.009085544923
8 2       0.000000000000       0.000000000000       8.780140000000       0.000002358227       0.000046683472      -0.009117707681
9 2       0.000000003333       2.923540000000      11.052130000000      -0.000040755744      -0.000005843003      -0.009110573240
10 2       2.531860001667       1.461770000000       9.395700000000      -0.000001760571      -0.000014126504       0.009105295335
11 2       0.000000000000       0.000000000000      11.667680000000      -0.000026459126       0.000016954919       0.009140456091
12 2       2.531860001667       1.461770000000      13.324100000000      -0.000024356100      -0.000036264717      -0.009045921019
13 2       7.595570005000       4.385310000000       1.964200000000       0.000078916390      -0.000063426389      -0.009112189169
14 2      -2.531859991667       7.308840000000       0.307790000000       0.000058508497       0.000120882998       0.009049140064
15 2       0.000000006667       5.847080000000       2.579760000000       0.000011085404      -0.000042011935       0.009077154147
16 2      -2.531859991667       7.308840000000       4.236190000000       0.000062121436       0.000084133716      -0.009120139512
17 2       0.000000006667       5.847080000000       6.508160000000      -0.000026052750      -0.000087287734      -0.009067883025
18 2       7.595570005000       4.385310000000       4.851740000000       0.000027450971      -0.000058260745       0.009137600865
19 2      -2.531859991667       7.308840000000       7.123730000000       0.000067035319       0.000113859008       0.009059724987
20 2       7.595570005000       4.385310000000       8.780140000000       0.000086875093      -0.000054151767      -0.009099424249
21 2      -2.531859991667       7.308840000000      11.052130000000       0.000029097961       0.000107182597      -0.009116524594
22 2       0.000000006667       5.847080000000       9.395700000000      -0.000032295726      -0.000046452093       0.009085649798
23 2       7.595570005000       4.385310000000      11.667680000000       0.000080236157      -0.000053072746       0.009126809994
24 2       0.000000006667       5.847080000000      13.324100000000       0.000019041448      -0.000085389231      -0.009056255072
25 2       5.063720000000       0.000000000000       1.964200000000      -0.000074334807       0.000007895211      -0.009117778171
26 2       5.063720003333       2.923540000000       0.307790000000      -0.000064128829      -0.000010358429       0.009053637009
27 2       7.595570001667       1.461770000000       2.579760000000       0.000070635665       0.000002679495       0.009078696209
28 2       5.063720003333       2.923540000000       4.236190000000      -0.000074246761      -0.000016653191      -0.009116867195
29 2       7.595570001667       1.461770000000       6.508160000000       0.000033007711      -0.000023388438      -0.009077204945
30 2       5.063720000000       0.000000000000       4.851740000000      -0.000102018221      -0.000021750586       0.009119455385
31 2       5.063720003333       2.923540000000       7.123730000000      -0.000042590436      -0.000011112456       0.009082465138
32 2       5.063720000000       0.000000000000       8.780140000000      -0.000034743568      -0.000003537387      -0.009129165222
33 2       5.063720003333       2.923540000000      11.052130000000      -0.000094949811      -0.000000811280      -0.009095159976
34 2       7.595570001667       1.461770000000       9.395700000000       0.000043861335      -0.000010933323       0.009101796030
35 2       5.063720000000       0.000000000000      11.667680000000      -0.000069862388      -0.000002484275       0.009142543583
36 2       7.595570001667       1.461770000000      13.324100000000       0.000079322717      -0.000029443849      -0.009050140023
37 2       2.531860005000       4.385310000000       1.964200000000      -0.000004669759      -0.000058010754      -0.009114210654
38 2       2.531860008333       7.308840000000       0.307790000000      -0.000038082613       0.000071056077       0.009045617423
39 2       5.063720006667       5.847080000000       2.579760000000      -0.000059795136      -0.000043177480       0.009069939673
40 2       2.531860008333       7.308840000000       4.236190000000       0.000012188027       0.000067697573      -0.009126534534
41 2       5.063720006667       5.847080000000       6.508160000000      -0.000098779999      -0.000089682357      -0.009055379160
42 2       2.531860005000       4.385310000000       4.851740000000      -0.000008464538      -0.000063583528       0.009136596882
43 2       2.531860008333       7.308840000000       7.123730000000       0.000046049325       0.000072729840       0.009060450347
44 2       2.531860005000       4.385310000000       8.780140000000       0.000021152712      -0.000062053171      -0.009112443602
45 2       2.531860008333       7.308840000000      11.052130000000      -0.000022837335       0.000056047962      -0.009116910895
46 2       5.063720006667       5.847080000000       9.395700000000      -0.000085729436      -0.000048485847       0.009074707163
47 2       2.531860005000       4.385310000000      11.667680000000       0.000026344528      -0.000061189491       0.009137707018
48 2       5.063720006667       5.847080000000      13.324100000000      -0.000070036883      -0.000079205014      -0.009047054071
49 1      -0.767259998485       1.328940000000       3.407970000000       0.021675965081      -0.037584513615       0.000044251821
50 1       1.534530000000       0.000000000000       3.407970000000      -0.043425732426      -0.000031838697       0.000052872539
51 1       1.764600003485       3.056370000000       3.407970000000       0.021648902673       0.037586373918       0.000054952183
52 1       3.299120000151       0.132830000000       1.135990000000      -0.021686385230       0.037605084076       0.000027604374
53 1       3.299120003182       2.790700000000       1.135990000000      -0.021710911567      -0.037497872668       0.000051124975
54 1       0.997330001667       1.461770000000       1.135990000000       0.043447541215      -0.000032032087       0.000032235981
55 1       1.764600003182       2.790700000000       7.951930000000       0.021703576280      -0.037506873476       0.000063932472
56 1       4.066390001667       1.461770000000       7.951930000000      -0.043455363108      -0.000035409172       0.000048161608
57 1       1.764600000151       0.132830000000       7.951930000000       0.021650743120       0.037611912237       0.000068069545
58 1       0.767260001818       1.594600000000       5.679960000000      -0.021726310503       0.037558595138      -0.000100185363
59 1       0.767260004849       4.252470000000       5.679960000000      -0.021631980475      -0.037531981827      -0.000086620382
60 1      -1.534529996667       2.923540000000       5.679960000000       0.043423516445       0.000034165023      -0.000113573103
61 1      -0.767259995151       4.252470000000      12.495900000000       0.021630240723      -0.037530901902      -0.000068142054
62 1       1.534530003333       2.923540000000      12.495900000000      -0.043438853796       0.000034777805      -0.000081354792
63 1      -0.767259998182       1.594600000000      12.495900000000       0.021708248868       0.037566975290      -0.000073370054
64 1       8.362830003485       3.056370000000      10.223910000000      -0.021624346069       0.037580202821       0.000075816852
65 1       0.767260001515       1.328940000000      10.223910000000      -0.021687501072      -0.037583009574       0.000045984548
66 1       3.529190000000       0.000000000000      10.223910000000       0.043369278955      -0.000068716138       0.000066916323
67 1       6.828310006515       5.714240000000       3.407970000000       0.021742785418      -0.037521282663       0.000083509116
68 1      -0.997329995000       4.385310000000       3.407970000000      -0.043427268773      -0.000029806196       0.000041599097
69 1      -0.767259991515       7.441680000000       3.407970000000       0.021638218547       0.037551049506       0.000066437236
70 1       0.767260005151       4.518140000000       1.135990000000      -0.021672496845       0.037613772273       0.000039218470
71 1       0.767260008182       7.176010000000       1.135990000000      -0.021681341691      -0.037571086726       0.000029347518
72 1      -1.534529993333       5.847080000000       1.135990000000       0.043463317109      -0.000094196669       0.000056785266
73 1      -0.767259991818       7.176010000000       7.951930000000       0.021712562954      -0.037562766872       0.000061759303
74 1       1.534530006667       5.847080000000       7.951930000000      -0.043465708094      -0.000092846386       0.000075424325
75 1      -0.767259994849       4.518140000000       7.951930000000       0.021669526719       0.037626472485       0.000061280831
76 1      -1.764599993182       5.979910000000       5.679960000000      -0.021720173784       0.037540608580      -0.000107262930
77 1      -1.764599990151       8.637780000000       5.679960000000      -0.021613498335      -0.037606778919      -0.000122806375
78 1      -4.066389991667       7.308840000000       5.679960000000       0.043480680841       0.000118479296      -0.000147472110
79 1      -3.299119990151       8.637780000000      12.495900000000       0.021667684429      -0.037597244180      -0.000083301742
80 1      -0.997329991667       7.308840000000      12.495900000000      -0.043431264565       0.000105204493      -0.000132199790
81 1      -3.299119993182       5.979910000000      12.495900000000       0.021741522787       0.037547353769      -0.000113094992
82 1       5.830970008485       7.441680000000      10.223910000000      -0.021579708190       0.037570733627       0.000092075825
83 1      -1.764599993485       5.714240000000      10.223910000000      -0.021666226429      -0.037514159312       0.000049314736
84 1       0.997330005000       4.385310000000      10.223910000000       0.043417131529      -0.000026934566       0.000044597608
85 1       4.296460001515       1.328940000000       3.407970000000       0.021652264945      -0.037579456162       0.000036035170
86 1       6.598240000000       0.000000000000       3.407970000000      -0.043358019483      -0.000057795927       0.000064593384
87 1       6.828310003485       3.056370000000       3.407970000000       0.021711879917       0.037581436993       0.000046521086
88 1       8.362830000151       0.132830000000       1.135990000000      -0.021625882228       0.037600564475       0.000052821017
89 1       8.362830003182       2.790700000000       1.135990000000      -0.021672258926      -0.037503926284       0.000040857486
90 1       6.061050001667       1.461770000000       1.135990000000       0.043396066458      -0.000028743571       0.000014841108
91 1       6.828320003182       2.790700000000       7.951930000000       0.021628108669      -0.037517125829       0.000040083164
92 1       9.130100001667       1.461770000000       7.951930000000      -0.043403729278      -0.000040125301       0.000047553127
93 1       6.828320000151       0.132830000000       7.951930000000       0.021594758925       0.037618987367       0.000073458479
94 1       5.830970001818       1.594600000000       5.679960000000      -0.021644729426       0.037571297527      -0.000069322475
95 1       5.830970004849       4.252470000000       5.679960000000      -0.021553615464      -0.037546745902      -0.000090829236
96 1       3.529190003333       2.923540000000       5.679960000000       0.043392851559       0.000034054258      -0.000101966121
97 1       4.296460004849       4.252470000000      12.495900000000       0.021618706484      -0.037522444892      -0.000064002201
98 1       6.598240003333       2.923540000000      12.495900000000      -0.043403090542       0.000007574301      -0.000085964019
99 1       4.296450001818       1.594600000000      12.495900000000       0.021818427757       0.037549728464      -0.000107569454
100 1       3.299120003485       3.056370000000      10.223910000000      -0.021664370158       0.037597422981       0.000053781487
101 1       5.830970001515       1.328940000000      10.223910000000      -0.021615712660      -0.037580201317       0.000036144114
102 1       8.592900000000       0.000000000000      10.223910000000       0.043430655331      -0.000024553265       0.000055609997
103 1       1.764600006515       5.714240000000       3.407970000000       0.021669767934      -0.037518214131       0.000045274366
104 1       4.066390005000       4.385310000000       3.407970000000      -0.043436682969      -0.000026420040       0.000031123210
105 1       4.296460008485       7.441680000000       3.407970000000       0.021609524399       0.037573383605       0.000058705963
106 1       5.830980005151       4.518140000000       1.135990000000      -0.021731874411       0.037612095719       0.000007848206
107 1       5.830980008182       7.176010000000       1.135990000000      -0.021767487445      -0.037550936672       0.000051010345
108 1       3.529190006667       5.847080000000       1.135990000000       0.043462902241      -0.000091216585       0.000056510093
109 1       4.296460008182       7.176010000000       7.951930000000       0.021661014067      -0.037560424771       0.000045944204
110 1       6.598240006667       5.847080000000       7.951930000000      -0.043404499494      -0.000095593596       0.000072494512
111 1       4.296460005151       4.518140000000       7.951930000000       0.021642615619       0.037614853638       0.000071429935
112 1       3.299120006818       5.979910000000       5.679960000000      -0.021723771238       0.037551469074      -0.000106531333
113 1       3.299110009849       8.637780000000       5.679960000000      -0.021556424332      -0.037596636975      -0.000146563688
114 1       0.997330008333       7.308840000000       5.679960000000       0.043428836140       0.000086652980      -0.000134886559
115 1       1.764600009849       8.637780000000      12.495900000000       0.021609137543      -0.037579850886      -0.000091927075
116 1       4.066380008333       7.308840000000      12.495900000000      -0.043343568062       0.000096525193      -0.000108253812
117 1       1.764600006818       5.979910000000      12.495900000000       0.021676158397       0.037536994366      -0.000079024601
118 1       0.767260008485       7.441680000000      10.223910000000      -0.021629865860       0.037557383018       0.000068636057
119 1       3.299120006515       5.714240000000      10.223910000000      -0.021681380003      -0.037531015969       0.000048472564
120 1       6.061050005000       4.385310000000      10.223910000000       0.043373479919      -0.000030099449       0.000039810665
