ITEM: TIMESTEP
0
ITEM: NUMBER OF ATOMS
160
ITEM: BOX BOUNDS pp pp pp
0.0000000000000000e+00 8.5162511260000002e+00
0.0000000000000000e+00 8.5162511260000002e+00
0.0000000000000000e+00 2.5548753377000001e+01
ITEM: ATOMS id type c_pe_atom
1 2     -11.162866097711
2 2     -10.292963844031
3 2     -10.401965026212
4 2     -11.294717309591
5 2     -11.345641765189
6 2     -11.198642079382
7 2     -10.359332230669
8 2     -10.444697789956
9 2     -10.234820233526
10 2     -10.381140460346
11 2     -10.337582220768
12 2     -11.431535381605
13 2     -11.214830247254
14 2     -11.321825952961
15 2     -10.361838390499
16 2     -10.640430621730
17 2     -10.316433176719
18 2     -11.138674983819
19 2     -10.341488370655
20 2     -10.565630359197
21 2      -6.887556400951
22 2      -6.372529298033
23 2      -6.663013565136
24 2      -5.618737629762
25 2      -6.353920484133
26 2      -7.189654814848
27 2      -7.279541896862
28 2      -5.492233640654
29 2      -7.505663973948
30 2      -6.403506400970
31 2      -6.274090176804
32 2      -6.529971177175
33 2      -5.863375870503
34 2      -5.917763263300
35 2      -6.416302119123
36 2      -5.831129888808
37 2      -7.005456338797
38 2      -5.936784294815
39 2      -7.284186995398
40 2      -7.242127264971
41 2      -6.689538449515
42 2      -7.013411792527
43 2      -6.320605811394
44 2      -6.077726326008
45 2      -5.887951359636
46 2      -5.848992773952
47 2      -5.952491797349
48 2      -6.935595529224
49 2      -5.963819031697
50 2      -6.981338472443
51 2      -7.111479579916
52 2      -6.239872763503
53 2      -5.832922522462
54 2      -6.320379185765
55 2      -6.416239024203
56 2      -6.621997200652
57 2      -6.393402083327
58 2      -6.349182315201
59 2      -6.427690285278
60 2      -7.272542093265
61 2     -10.763110092731
62 2     -10.690375734575
63 2     -10.495318158244
64 2     -10.706311940586
65 1      -5.962131789529
66 1      -6.206637361002
67 1      -2.956255713107
68 1      -2.445887681552
69 1      -2.412369038783
70 1      -2.634072357821
71 1      -6.003829860436
72 1      -2.538380729250
73 1      -6.153010020141
74 1      -2.485425984975
75 1      -2.430026173988
76 1      -6.628082992610
77 1      -3.180330087916
78 1      -2.995846465207
79 1      -2.528112880905
80 1      -6.964539206817
81 1      -6.111526907786
82 1      -5.949913518539
83 1      -6.232936130274
84 1      -6.334879853275
85 1      -2.897825315526
86 1      -2.531478751955
87 1      -5.930347153158
88 1      -6.319795039461
89 1      -6.395200624222
90 1      -6.024599869888
91 1      -2.536074163708
92 1      -5.688619954085
93 1      -3.028784010112
94 1      -2.495263500998
95 1      -7.047936780217
96 1      -2.537269867701
97 1      -2.565999928398
98 1      -6.725967004798
99 1      -6.623074185638
100 1      -2.915882479961
101 1      -5.756634012563
102 1      -2.847964584093
103 1      -3.272970082142
104 1      -6.123793582532
105 1      -2.580823632084
106 1      -5.964533601001
107 1      -2.602921780640
108 1      -2.842867850945
109 1      -6.332442522441
110 1      -5.967275347341
111 1      -2.619752477602
112 1      -2.504952851556
113 1      -3.082740345363
114 1      -2.360030929176
115 1      -5.979421322917
116 1      -6.066557662064
117 1      -6.305577699718
118 1      -5.967800669709
119 1      -3.014636454929
120 1      -3.331917211893
121 1      -6.308933263006
122 1      -6.487906619219
123 1      -2.675652323312
124 1      -2.271233604912
125 1      -6.541202342448
126 1      -2.755547582810
127 1      -6.306886778044
128 1      -6.331888720583
129 1      -3.151004846312
130 1      -5.953637825396
131 1      -3.123481973165
132 1      -6.016499970681
133 1      -6.173782529025
134 1      -7.042555828083
135 1      -5.740649673729
136 1      -3.278136325736
137 1      -2.641350739849
138 1      -5.760267281001
139 1      -6.089825241736
140 1      -2.567094678857
141 1      -2.588677702381
142 1      -6.229289931162
143 1      -2.510073563277
144 1      -5.976120232406
145 1      -2.204348776962
146 1      -3.253397503322
147 1      -6.022234056727
148 1      -2.549902310807
149 1      -2.630699647321
150 1      -6.244701887665
151 1      -5.998410653885
152 1      -6.657707266428
153 1      -5.923331146103
154 1      -3.032812827179
155 1      -2.265400792983
156 1      -5.808855127286
157 1      -5.929058206052
158 1      -3.142788604942
159 1      -2.742216799620
160 1      -2.860925281473
