ITEM: TIMESTEP
0
ITEM: NUMBER OF ATOMS
160
ITEM: BOX BOUNDS pp pp pp
0.0000000000000000e+00 8.2767117240000001e+00
0.0000000000000000e+00 8.2767117240000001e+00
0.0000000000000000e+00 2.4830135170999998e+01
ITEM: ATOMS id type c_pe_atom
1 2      -4.360328791091
2 2      -4.180166775706
3 2      -4.176435925238
4 2      -4.316163224309
5 2      -4.301376255162
6 2      -4.371401020572
7 2      -4.228115637737
8 2      -4.201987346795
9 2      -4.215096504904
10 2      -4.171471297521
11 2      -4.183436665262
12 2      -4.304770994386
13 2      -4.356855167475
14 2      -4.295039663802
15 2      -4.178018061841
16 2      -4.206356555956
17 2      -4.245616624447
18 2      -4.363100869182
19 2      -4.231339212349
20 2      -4.205483771784
21 2      -4.791339812000
22 2      -4.682088458193
23 2      -4.869642515513
24 2      -4.543842900522
25 2      -4.688214232285
26 2      -4.992642126655
27 2      -4.966606982855
28 2      -4.516378178758
29 2      -4.953260627964
30 2      -4.804752924480
31 2      -4.691475983750
32 2      -4.674189181566
33 2      -4.629455897144
34 2      -4.582869636156
35 2      -4.642158981059
36 2      -4.603647080541
37 2      -4.843154910359
38 2      -4.599583499471
39 2      -4.952368586636
40 2      -4.969833399155
41 2      -4.670101936186
42 2      -4.781392461688
43 2      -4.709630460199
44 2      -4.624642787660
45 2      -4.591397798824
46 2      -4.576813726752
47 2      -4.641774167218
48 2      -4.803824383945
49 2      -4.641169111719
50 2      -4.973421168555
51 2      -4.991999144119
52 2      -4.644687320120
53 2      -4.585106014507
54 2      -4.646246204678
55 2      -4.632523439631
56 2      -4.646463117963
57 2      -4.694465553569
58 2      -4.683270321907
59 2      -4.631965294438
60 2      -4.964187545193
61 2      -4.538188783096
62 2      -4.494305898985
63 2      -4.514977228615
64 2      -4.514491244166
65 1     -11.178072044592
66 1     -11.220343337875
67 1     -11.115956951405
68 1     -11.150829923051
69 1     -11.138131644593
70 1     -11.025844011878
71 1     -11.153281333268
72 1     -10.738864105197
73 1     -11.106845272906
74 1     -10.724463665202
75 1     -11.110154661854
76 1     -11.077577469978
77 1     -11.321795143190
78 1     -11.108840472871
79 1     -11.111733548760
80 1     -11.076404700020
81 1     -11.103673775389
82 1     -11.178073784773
83 1     -11.095264352500
84 1     -11.135257462194
85 1     -11.340049598840
86 1     -11.161101527751
87 1     -11.195689461588
88 1     -11.129749951295
89 1     -11.117183618567
90 1     -11.174955122119
91 1     -10.730478785942
92 1     -11.190031670795
93 1     -11.106394746653
94 1     -11.158193508218
95 1     -11.073175559541
96 1     -11.025393032728
97 1     -11.023605831722
98 1     -11.014565740028
99 1     -11.085397462333
100 1     -11.095819231045
101 1     -11.176912314513
102 1     -10.724235000226
103 1     -10.689101869934
104 1     -11.115166742873
105 1     -10.732308630091
106 1     -11.129644589520
107 1     -11.149902469438
108 1     -11.063110640256
109 1     -11.139581956332
110 1     -11.226305843023
111 1     -11.170596470489
112 1     -11.105362990231
113 1     -11.327032768149
114 1     -11.172160546577
115 1     -11.150457958131
116 1     -11.142077462845
117 1     -11.157741348625
118 1     -11.170445124351
119 1     -11.124634439963
120 1     -11.335944835797
121 1     -11.136733596750
122 1     -11.130132948095
123 1     -11.025625485167
124 1     -11.113734001336
125 1     -11.079923878960
126 1     -11.180393725779
127 1     -11.213231054952
128 1     -11.173138982853
129 1     -11.117550723314
130 1     -11.146146684521
131 1     -11.320884534122
132 1     -11.201977706293
133 1     -11.167434423202
134 1     -11.072633122015
135 1     -11.184339179664
136 1     -11.294662986016
137 1     -11.029212610249
138 1     -11.162751571378
139 1     -11.213227742657
140 1     -11.044101105799
141 1     -11.147633631048
142 1     -11.159015206612
143 1     -11.056775250762
144 1     -11.180796786854
145 1     -11.120228025029
146 1     -10.688238833124
147 1     -11.190459560094
148 1     -11.041276432191
149 1     -11.203733228211
150 1     -11.131414045013
151 1     -11.161809781162
152 1     -11.081666454785
153 1     -11.220949525887
154 1     -11.323169721991
155 1     -11.063250111240
156 1     -11.096161476273
157 1     -11.181522781832
158 1     -11.322479963938
159 1     -10.731130426305
160 1     -11.049582183139
