ITEM: TIMESTEP
0
ITEM: NUMBER OF ATOMS
20
ITEM: BOX BOUNDS xy xz yz pp pp pp
-1.3874819387120001e+00 1.2435526218410001e+01 0.0000000000000000e+00
0.0000000000000000e+00 3.0795494909999999e+00 -1.3874819387120001e+00
0.0000000000000000e+00 5.7012215643369997e+00 0.0000000000000000e+00
ITEM: ATOMS id type c_pe_atom
1 2      -4.965851244359
2 2      -4.965849874383
3 2      -4.454079021195
4 2      -4.454078952636
5 2      -4.965847327422
6 2      -4.965850394152
7 2      -4.454085028915
8 2      -4.454079146901
9 1     -11.177380208597
10 1     -11.177383157580
11 1     -10.980143396093
12 1     -10.980142684987
13 1     -11.079138350209
14 1     -11.079135615285
15 1     -11.177383152552
16 1     -11.177380047794
17 1     -10.980140238566
18 1     -10.980142241458
19 1     -11.079135457934
20 1     -11.079140986821
