ITEM: TIMESTEP
0
ITEM: NUMBER OF ATOMS
160
ITEM: BOX BOUNDS pp pp pp
0.0000000000000000e+00 8.3792421939999997e+00
0.0000000000000000e+00 8.3792421939999997e+00
0.0000000000000000e+00 2.5137726581999999e+01
ITEM: ATOMS id type x y z fx fy fz
1 2       1.215600000000       5.202000000000      22.105810000000      -0.076036305624       0.077130979260      -0.057178445331
2 2       5.204400000000       0.846300000000      13.683440000000      -0.186921143106      -0.028388063617      -0.023976062394
3 2       7.161240000000       7.408280000000       7.395250000000      -0.139571907822       0.109005673340      -0.053644004334
4 2       7.292520000000       7.138630000000      15.780870000000       0.004634523429      -0.054169082543       0.060493050662
5 2       5.224640000000       5.254490000000       0.983410000000       0.126420036967       0.254177639195      -0.047005331909
6 2       3.031750000000       3.204440000000       7.214910000000       0.002830610914      -0.156294514868      -0.006850626810
7 2       0.953030000000       1.049140000000       1.090110000000      -0.126859786296       0.003893378734       0.001612924209
8 2       5.173400000000       1.033090000000       5.247300000000       0.016068103675       0.100897753368       0.003339576551
9 2       3.183420000000       2.967480000000      15.662410000000      -0.073637766200       0.030770705076      -0.016553523408
10 2       5.387880000000       1.117570000000      21.927870000000      -0.090142860383       0.046110957237       0.049627742008
11 2       3.139300000000       7.255790000000      11.524200000000      -0.040627048041      -0.005680644273      -0.019312874913
12 2       7.427030000000       3.196820000000      19.826020000000       0.142236345686      -0.175307631494      -0.060151233704
13 2       1.019070000000       5.101660000000      13.495830000000       0.049386967907       0.079550414838      -0.029686555596
14 2       7.331340000000       3.223060000000       3.206070000000      -0.102912414382      -0.261763404311       0.049436982533
15 2       5.102180000000       5.338570000000       9.377850000000      -0.104468241290       0.115219170695       0.036040031352
16 2       7.363410000000       7.443850000000      24.119450000000      -0.028990329934      -0.130470424091       0.032241104219
17 2       3.197030000000       7.455920000000      19.943430000000      -0.135498481526      -0.042433169816       0.043748089937
18 2       0.914880000000       1.078620000000       9.527650000000       0.130374709907       0.015083200795       0.008079320728
19 2       3.229640000000       7.426680000000       3.096760000000       0.089305166261       0.041104755262      -0.030415858727
20 2       1.176800000000       1.035120000000      17.834080000000      -0.084173921837       0.037668783022       0.034446798177
21 2       3.932250000000       0.188470000000       8.391860000000       0.234493743647      -0.186491052638       0.025992695069
22 2       6.143110000000       6.118820000000      12.545980000000       0.029749324033      -0.069273727859      -0.050382947491
23 2       2.164110000000       2.134850000000      20.963530000000       0.032624595429      -0.108709832115      -0.016510381217
24 2       6.410670000000       6.297590000000      20.917020000000      -0.008596818410      -0.246283391709       0.050573516522
25 2       1.965250000000       6.402640000000       8.291140000000      -0.096289669666       0.046150830168      -0.013551533229
26 2       8.329690000000       2.062930000000       6.246590000000       0.226438783333      -0.009449139386      -0.233570665492
27 2       1.992630000000       2.095220000000       4.223530000000      -0.119959950673       0.111963107025       0.155585967525
28 2       0.050970000000       2.015590000000      14.626090000000       0.061762532179       0.298217373472       0.081854065222
29 2       0.164490000000       6.209090000000      18.809140000000       0.063404840334      -0.105403621105      -0.131505182946
30 2       6.275610000000       0.054880000000       2.104520000000       0.005169632544      -0.019765284887      -0.039144142797
31 2       6.102170000000       0.076600000000      10.537310000000      -0.000814590774      -0.031606623006       0.077202914413
32 2       4.177950000000       2.199110000000      18.805800000000       0.073139564406      -0.038479210168      -0.215443438566
33 2       6.415100000000       8.341220000000      18.861250000000       0.128840232469       0.090349278146      -0.094248715075
34 2       6.359300000000       2.051790000000      16.740310000000      -0.037777807539      -0.005096861034       0.248732400615
35 2       0.159830000000       2.069660000000      23.095870000000      -0.017585629743       0.098785100424       0.238812568479
36 2       2.036650000000       8.165580000000      14.757540000000      -0.148724786603       0.010836946478      -0.070788434580
37 2       4.015700000000       6.030050000000      14.670530000000       0.192395199083       0.171336013602       0.015618319102
38 2       6.252500000000       4.208920000000       6.310010000000      -0.049176911734      -0.012389782614      -0.227611867080
39 2       4.213420000000       6.391630000000      23.080540000000      -0.093571233179      -0.062900783603       0.215224506958
40 2       0.094890000000       4.190490000000      16.756190000000       0.050802969815       0.037564755522       0.230327327459
41 2       2.088970000000       4.241640000000       2.092390000000      -0.007624064578      -0.011193008666       0.011424112156
42 2       4.138640000000       4.308270000000      20.894540000000       0.061028392869      -0.022431566662       0.074530125240
43 2       4.145880000000       8.186790000000      16.819430000000       0.068082963002       0.014157826200       0.153098030728
44 2       6.308940000000       4.245080000000      22.996890000000       0.061506144435      -0.164198238190       0.094283878839
45 2       8.315000000000       6.213370000000      10.452110000000      -0.022020360829       0.057628338359       0.256531714106
46 2       8.364490000000       8.309850000000      12.592070000000       0.014242215514      -0.123335172506      -0.311391938783
47 2       0.029370000000       4.279410000000       0.041150000000      -0.095398571751       0.052948794800      -0.159927291029
48 2       6.222330000000       4.066640000000      14.636050000000       0.119346735278       0.126450011592      -0.037285732442
49 2       4.140740000000       4.194640000000       4.155910000000       0.089059355541      -0.065999705621       0.181776583552
50 2       2.128010000000       2.038240000000      12.496440000000      -0.070224355691       0.203215440957      -0.150390348006
51 2       2.096450000000       4.115880000000      10.487710000000      -0.103993266596      -0.183119535445       0.143259264539
52 2       0.041650000000       6.437490000000       2.197350000000       0.132614099937       0.043561232947      -0.064657566322
53 2       0.203500000000       8.336790000000      21.050960000000       0.009712449060      -0.229075852632      -0.128295522140
54 2       4.127400000000       2.040930000000       1.987040000000      -0.183226642189      -0.036156499315       0.015132837544
55 2       6.209260000000       2.054910000000      25.091730000000       0.034892011650       0.045296432427      -0.228220619061
56 2       8.356800000000       4.142650000000       8.375740000000      -0.010896629627      -0.034298812657      -0.015202623724
57 2       6.087760000000       2.166990000000       8.481050000000      -0.056805426813       0.114464907885      -0.062568883195
58 2       4.021980000000       6.427840000000       6.225840000000       0.050118415736      -0.044688104307      -0.114042315325
59 2       6.341680000000       6.425680000000       4.243010000000      -0.046270746899      -0.039639533576       0.201333048868
60 2       2.181910000000       6.387160000000      25.103750000000       0.139903899328      -0.070821512955      -0.131783165789
61 2       5.168440000000       3.123530000000      11.565620000000      -0.100252324479      -0.077077490513      -0.009492863419
62 2       3.178310000000       1.077390000000      24.068410000000       0.066587362242      -0.043460231237      -0.019870662198
63 2       3.169790000000       5.173090000000      17.798770000000      -0.063700033294       0.063794256796       0.010094705260
64 2       0.988270000000       7.400190000000       5.231440000000       0.002289922132       0.057595682610       0.022852822575
65 1       2.121270000000       2.145620000000       2.120350000000       0.144955542552      -0.019048459433      -0.113666558600
66 1       6.151600000000       6.235470000000       6.248520000000       0.070745856639      -0.035301304504      -0.048110780626
67 1       4.251990000000       8.315920000000       6.429260000000      -0.036252139839       0.143420007934       0.098804011715
68 1       4.309050000000       0.128700000000       2.086150000000       0.040291356144      -0.057498494598       0.032724050410
69 1       8.260360000000       6.363440000000       4.122540000000       0.069785005462      -0.032951047865       0.097399619271
70 1       0.028400000000       2.179150000000       4.273190000000       0.051184447419       0.021231257899       0.082805589682
71 1       6.199990000000       4.169060000000       8.350160000000       0.161676190373      -0.154578656035       0.044216595727
72 1       1.913900000000       4.439610000000       0.226250000000      -0.022975030752       0.177962818956      -0.013641426771
73 1       8.369690000000       4.354180000000       2.077370000000       0.107836763935       0.027724197569      -0.048352564219
74 1       8.127790000000       4.019000000000       6.511720000000      -0.052832435534      -0.158514196356       0.002719240390
75 1       4.288400000000       2.112760000000       0.055750000000      -0.076321594648       0.010897423911      -0.049273507795
76 1       4.017810000000       6.385760000000       8.248060000000       0.010584457751       0.107567846173      -0.106197875833
77 1       2.112800000000       0.080470000000       4.171940000000       0.010729501956      -0.014875782867      -0.048016069366
78 1       6.150040000000       8.325970000000       4.091940000000      -0.006501173253       0.100842227469      -0.118804909137
79 1       2.100250000000       6.393010000000       6.356760000000      -0.088533119415      -0.010966956404      -0.073473918485
80 1       6.225190000000       2.123890000000       2.031410000000       0.062795425856       0.063051280196       0.063090541682
81 1       4.184150000000       4.125210000000       2.110800000000      -0.107741430019      -0.042934575170       0.036253473240
82 1       4.223020000000       4.331020000000       6.175590000000      -0.076848652603       0.009135877094      -0.017593857510
83 1       8.179390000000       2.102950000000       8.364270000000       0.003307398387       0.042192026625       0.034450361584
84 1       0.044650000000       6.306910000000       0.089250000000       0.076450796098      -0.024939041700      -0.081546164148
85 1       8.238330000000       0.066330000000       6.304660000000       0.007987259543       0.070512711492       0.008640329779
86 1       8.244190000000       8.352920000000       2.101060000000      -0.047052879734       0.052031821269      -0.015240747029
87 1       4.240050000000       6.234650000000       4.234060000000      -0.123123740416       0.040955513583       0.134801245927
88 1       4.125360000000       2.169610000000       4.110130000000      -0.059008248389       0.032997400057       0.049022609591
89 1       6.255460000000       2.165380000000       6.355300000000      -0.031372080192      -0.030037171366      -0.031026057773
90 1       2.054240000000       6.335760000000       2.064660000000      -0.089271242026       0.019474728178       0.128773981394
91 1       2.258640000000       4.043690000000       3.957690000000       0.034192760855      -0.184122424693       0.029780519978
92 1       6.161590000000       4.322760000000       4.273820000000       0.028441071589       0.032357831517      -0.044373252783
93 1       6.385370000000       0.152290000000       0.112940000000       0.021306086083      -0.079608700344       0.128967148218
94 1       2.035270000000       8.330180000000       8.530210000000       0.038950437798       0.063440951038      -0.044113549832
95 1       6.324600000000       6.358740000000       2.158590000000      -0.070372584623      -0.062560321762      -0.033152352884
96 1       1.916250000000       2.163840000000       6.168830000000      -0.004341686930       0.024333732595       0.029115310835
97 1       2.019610000000       2.153710000000      10.547160000000      -0.037741645807       0.002841580265       0.019079775194
98 1       6.204940000000       6.123750000000      14.591840000000      -0.131443681420       0.017292196458       0.007749774134
99 1       4.110400000000       8.190800000000      14.803930000000       0.037698077936      -0.081802249513       0.150851791134
100 1       4.213060000000       8.212620000000      10.345590000000      -0.149492219890       0.036989467551      -0.095627453077
101 1       8.234170000000       6.289880000000      12.475190000000       0.040409700059      -0.023827980145      -0.043800647118
102 1       0.170610000000       1.802500000000      12.759870000000       0.188471101919      -0.050118569018       0.028485593473
103 1       6.544260000000       3.914170000000      16.520950000000       0.075520589764      -0.091410502752       0.015287314068
104 1       2.026580000000       4.315420000000       8.389800000000      -0.029593834178       0.001958925138      -0.057599576600
105 1       0.129510000000       4.342000000000      10.240660000000       0.200224757539       0.040594251373       0.033803673866
106 1       0.001330000000       4.021080000000      14.677770000000      -0.141095315907      -0.231683519531      -0.120660106329
107 1       4.155700000000       2.091350000000       8.228640000000      -0.036944889937      -0.053724566232       0.034832835580
108 1       4.131400000000       6.283850000000      16.637320000000      -0.054150976709      -0.108503730649      -0.067019988680
109 1       2.026570000000       8.336520000000      12.630380000000       0.001461219946      -0.017084527389      -0.006355443375
110 1       6.333260000000       8.216220000000      12.525000000000       0.038945785136       0.138620968693      -0.066763584198
111 1       2.101950000000       6.251640000000      14.509810000000       0.049224703016      -0.039309185200       0.037314111009
112 1       6.129930000000       2.002230000000      10.407130000000       0.011994496689       0.086240664707       0.089949035034
113 1       4.105760000000       4.240810000000      10.482470000000      -0.015208114880       0.028874584812      -0.050272714261
114 1       4.278510000000       4.130610000000      14.742260000000      -0.054045667036      -0.033404456179       0.002329507831
115 1       0.027150000000       2.033620000000      16.656090000000       0.026146413289       0.062107885506      -0.001074959758
116 1       8.334700000000       6.293820000000       8.408840000000       0.140045153033      -0.161032999186      -0.033806794758
117 1       0.037790000000       8.265240000000      14.665130000000       0.260337898383       0.045113797878       0.018332452304
118 1       8.193310000000       8.248460000000      10.571610000000      -0.000878348724       0.086560339607       0.014027518769
119 1       4.254840000000       6.349430000000      12.715640000000      -0.126420750955      -0.028686960943       0.090944085825
120 1       4.150170000000       1.946680000000      12.618420000000       0.036268435222       0.008325035532       0.007820659865
121 1       6.375460000000       1.965850000000      14.694900000000       0.025638286509       0.063419571373      -0.014286467210
122 1       1.988610000000       6.204970000000      10.405610000000       0.060035547610       0.004046386015       0.044670006230
123 1       2.052000000000       4.006010000000      12.437730000000      -0.033999077118      -0.036862286253       0.058878295772
124 1       6.218210000000       4.199520000000      12.687460000000       0.014010884123      -0.090551147819      -0.095826093971
125 1       6.109580000000       0.108810000000       8.516490000000      -0.085804750310      -0.041967084905       0.107974420953
126 1       2.228400000000       0.045620000000      16.671780000000      -0.094526000783       0.002012076690       0.030325901798
127 1       6.292420000000       6.322910000000      10.523540000000       0.056992004375      -0.049720249627      -0.005000634065
128 1       2.090510000000       1.876980000000      14.582440000000      -0.031144909465      -0.014702506907       0.012316217238
129 1       2.272280000000       2.007800000000      18.971140000000      -0.078492673903      -0.029242553244       0.109763030425
130 1       6.337680000000       6.310100000000      22.950210000000      -0.040405146121       0.089590097340       0.024308564434
131 1       4.326890000000       0.033720000000      23.000230000000       0.005310251011       0.033957376382       0.031369306645
132 1       4.374190000000       0.071500000000      18.793490000000      -0.041914158493      -0.088163787475      -0.147916703211
133 1       0.108520000000       6.341850000000      20.973210000000       0.100249428270       0.262149399907      -0.020387080464
134 1       0.109770000000       2.074980000000      21.010440000000      -0.041593022028       0.032779161045      -0.013391134572
135 1       6.395260000000       4.160700000000      25.047350000000      -0.000481450671      -0.039588679323       0.060059918561
136 1       2.102660000000       4.040670000000      16.737420000000       0.020314092853      -0.034304414311       0.053769715996
137 1       0.067600000000       4.247400000000      18.721200000000      -0.035076272640       0.051689174960      -0.003323537268
138 1       8.338930000000       4.148430000000      23.143590000000       0.054402787025       0.002939912009       0.040172809103
139 1       4.340610000000       1.940520000000      16.826690000000      -0.012614079511       0.063008302019       0.136986114657
140 1       4.153890000000       6.296620000000      25.042890000000      -0.083379296085      -0.034247115717      -0.008849432619
141 1       2.100330000000       0.144020000000      20.953170000000       0.039596431014       0.128390746860      -0.000187917608
142 1       6.486120000000       0.009990000000      20.876770000000       0.040983574868      -0.076256514326      -0.182907025211
143 1       2.252280000000       6.316550000000      23.159450000000      -0.045539139943      -0.004860839654      -0.109464469757
144 1       6.300470000000       1.996230000000      18.774360000000      -0.085107005324       0.076775322219       0.027743197192
145 1       4.220750000000       4.121920000000      18.956850000000       0.012950483649       0.051045495142      -0.110018267740
146 1       4.453290000000       4.460570000000      22.785420000000       0.052746540686       0.119894902399       0.020608621642
147 1       8.312490000000       2.242900000000      25.094430000000       0.129906341759      -0.048488641362      -0.095144072233
148 1       0.032000000000       6.140620000000      16.844700000000       0.000820295187       0.065183491101       0.006858780044
149 1       8.306040000000       0.157800000000      22.954070000000      -0.008634354406      -0.075245964855       0.050466083358
150 1       0.059370000000       8.341670000000      18.939450000000      -0.039873787063      -0.072090939447      -0.059979585780
151 1       4.358270000000       6.353460000000      20.968320000000      -0.010124629293       0.024474592874      -0.090758405026
152 1       4.250380000000       2.200850000000      20.849400000000       0.090895058307      -0.008976953430       0.015948938286
153 1       6.415470000000       2.241950000000      23.091190000000      -0.067021703510       0.094657213995       0.045975404806
154 1       2.151990000000       6.318880000000      18.888300000000      -0.048393470759       0.029980430424      -0.027125025732
155 1       2.220460000000       4.096610000000      21.020440000000       0.055098813899      -0.044751511654       0.006982319942
156 1       6.369820000000       4.291700000000      20.965850000000      -0.318674178640       0.218832702792       0.028132438920
157 1       6.248140000000       0.007440000000      16.831590000000      -0.024285184981      -0.069831059274      -0.007652061655
158 1       2.072150000000       0.015690000000       0.016070000000      -0.036387064219      -0.012299072287       0.033903693469
159 1       6.606900000000       6.463780000000      19.050110000000       0.110784043017       0.045914576737       0.047754260553
160 1       2.061600000000       2.078480000000      22.951750000000       0.027619463317      -0.014790812463      -0.078203690584
