ITEM: TIMESTEP
0
ITEM: NUMBER OF ATOMS
80
ITEM: BOX BOUNDS pp pp pp
0.0000000000000000e+00 9.2227256640000004e+00
0.0000000000000000e+00 9.2227256640000004e+00
0.0000000000000000e+00 9.2227256640000004e+00
ITEM: ATOMS id type v_vir_xx v_vir_yy v_vir_zz v_vir_xy v_vir_xz v_vir_yz
1 2      -7.509942677975      -7.509960404321      -7.509979772574      -1.482868217349       1.482881931578       1.482892748860
2 2      -6.633249852517      -6.898673772900      -6.851591270571       0.000020383084       0.448033076675       0.000036309451
3 2      -6.851527725792      -6.633176540048      -6.898556430928       0.448023062116      -0.000026242094      -0.000007396662
4 2      -6.851595131464      -6.633290321603      -6.898683629091      -0.448044554103      -0.000000207892      -0.000008544363
5 2      -6.898556430928      -6.851527725792      -6.633176540048      -0.000026242094      -0.000007396662       0.448023062116
6 2      -6.898624959837      -6.851611262485      -6.633296845222      -0.000009857867       0.000021535726      -0.448006636508
7 2      -6.633290321603      -6.898683629091      -6.851595131464      -0.000008544363      -0.448044554103      -0.000000207892
8 2      -7.509979772574      -7.509942677975      -7.509960404321       1.482881931578       1.482892748860      -1.482868217349
9 2      -7.510019179376      -7.510019179376      -7.510019179376      -1.482882010591      -1.482882010591      -1.482882010591
10 2      -7.509960404321      -7.509979772574      -7.509942677975       1.482892748860      -1.482868217349       1.482881931578
11 2      -6.633296845222      -6.898624959837      -6.851611262485       0.000021535726      -0.448006636508      -0.000009857867
12 2      -6.898683629091      -6.851595131464      -6.633290321603      -0.000000207892      -0.000008544363      -0.448044554103
13 2      -6.898673772900      -6.851591270571      -6.633249852517       0.000036309451       0.000020383084       0.448033076675
14 2      -6.851611262485      -6.633296845222      -6.898624959837      -0.448006636508      -0.000009857867       0.000021535726
15 2      -6.851591270571      -6.633249852517      -6.898673772900       0.448033076675       0.000036309451       0.000020383084
16 2      -6.633176540048      -6.898556430928      -6.851527725792      -0.000007396662       0.448023062116      -0.000026242094
17 2      -7.509920992790      -7.509903265269      -7.509883903123      -1.482892678373       1.482878956081       1.482868137938
18 2      -6.633263534303      -6.898637376278      -6.851557704823       0.000005261817       0.448017886791       0.000015513198
19 2      -6.851623445150      -6.633300750581      -6.898568230102       0.448022891923      -0.000025575629      -0.000018254694
20 2      -6.851553842879      -6.633223064822      -6.898627516451      -0.448006399859      -0.000000872275      -0.000019401351
21 2      -6.898568230102      -6.851623445150      -6.633300750581      -0.000025575629      -0.000018254694       0.448022891923
22 2      -6.898499694825      -6.851539914005      -6.633180446635       0.000010936469       0.000006408442      -0.448039310303
23 2      -6.633223064822      -6.898627516451      -6.851553842879      -0.000019401351      -0.448006399859      -0.000000872275
24 2      -7.509883903123      -7.509920992790      -7.509903265269       1.482878956081       1.482868137938      -1.482892678373
25 2      -7.509844470574      -7.509844470574      -7.509844470574      -1.482878870330      -1.482878870330      -1.482878870330
26 2      -7.509903265269      -7.509883903123      -7.509920992790       1.482868137938      -1.482892678373       1.482878956081
27 2      -6.633180446635      -6.898499694825      -6.851539914005       0.000006408442      -0.448039310303       0.000010936469
28 2      -6.898627516451      -6.851553842879      -6.633223064822      -0.000000872275      -0.000019401351      -0.448006399859
29 2      -6.898637376278      -6.851557704823      -6.633263534303       0.000015513198       0.000005261817       0.448017886791
30 2      -6.851539914005      -6.633180446635      -6.898499694825      -0.448039310303       0.000010936469       0.000006408442
31 2      -6.851557704823      -6.633263534303      -6.898637376278       0.448017886791       0.000015513198       0.000005261817
32 2      -6.633300750581      -6.898568230102      -6.851623445150      -0.000018254694       0.448022891923      -0.000025575629
33 1       3.411485732462       3.645247926494       3.044047768666      -0.491218809634       0.781494291200       0.033553931166
34 1       3.411488369764       3.645272099631       3.044037453554       0.491233856374      -0.781489306432       0.033546470752
35 1       3.645285070467       3.044065320560       3.411467320734      -0.033554524880      -0.491218139822      -0.781485502894
36 1       3.645294692337       3.044045319904       3.411460640438       0.033554873173      -0.491234881458       0.781504938434
37 1       3.645267429338       3.044060068802       3.411473998839      -0.033558115041       0.491218663090       0.781508426570
38 1       3.645254555255       3.044059210354       3.411452190474       0.033540001389       0.491224534745      -0.781496220026
39 1       3.411467320734       3.645285070467       3.044065320560      -0.491218139822      -0.781485502894      -0.033554524880
40 1       3.411473998839       3.645267429338       3.044060068802       0.491218663090       0.781508426570      -0.033558115041
41 1       3.044059210354       3.411452190474       3.645254555255      -0.781496220026       0.033540001389       0.491224534745
42 1       3.044056770767       3.411468411817       3.645265077814       0.781502360419      -0.033523054157       0.491238649956
43 1       3.044065320560       3.411467320734       3.645285070467      -0.781485502894      -0.033554524880      -0.491218139822
44 1       3.044047768666       3.411485732462       3.645247926494       0.781494291200       0.033553931166      -0.491218809634
45 1       3.044047943133       3.411480890147       3.645263390819      -0.781538990390      -0.033548983518      -0.491234484597
46 1       3.044060068802       3.411473998839       3.645267429338       0.781508426570      -0.033558115041       0.491218663090
47 1       3.044037453554       3.411488369764       3.645272099631      -0.781489306432       0.033546470752       0.491233856374
48 1       3.044045319904       3.411460640438       3.645294692337       0.781504938434       0.033554873173      -0.491234881458
49 1       3.411468411817       3.645265077814       3.044056770767       0.491238649956       0.781502360419      -0.033523054157
50 1       3.411480890147       3.645263390819       3.044047943133      -0.491234484597      -0.781538990390      -0.033548983518
51 1       3.645265077814       3.044056770767       3.411468411817      -0.033523054157       0.491238649956       0.781502360419
52 1       3.645272099631       3.044037453554       3.411488369764       0.033546470752       0.491233856374      -0.781489306432
53 1       3.645247926494       3.044047768666       3.411485732462       0.033553931166      -0.491218809634       0.781494291200
54 1       3.645263390819       3.044047943133       3.411480890147      -0.033548983518      -0.491234484597      -0.781538990390
55 1       3.411460640438       3.645294692337       3.044045319904      -0.491234881458       0.781504938434       0.033554873173
56 1       3.411452190474       3.645254555255       3.044059210354       0.491224534745      -0.781496220026       0.033540001389
57 1       3.411472692615       3.645242133303       3.044060367690      -0.491235165727       0.781540495072       0.033545034333
58 1       3.411479167068       3.645283006576       3.044067563316       0.491255360413      -0.781526399401       0.033547760764
59 1       3.645249726857       3.044057079664       3.411448259976      -0.033536117754      -0.491223776385      -0.781492513718
60 1       3.645263338064       3.044079025887       3.411468094678       0.033542082847      -0.491227758795       0.781481909885
61 1       3.645248778846       3.044069341166       3.411458777598      -0.033549894240       0.491229454159       0.781506324784
62 1       3.645238417409       3.044068262432       3.411467428275       0.033561696521       0.491202864045      -0.781509702152
63 1       3.411448259976       3.645249726857       3.044057079664      -0.491223776385      -0.781492513718      -0.033536117754
64 1       3.411458777598       3.645248778846       3.044069341166       0.491229454159       0.781506324784      -0.033549894240
65 1       3.044068262432       3.411467428275       3.645238417409      -0.781509702152       0.033561696521       0.491202864045
66 1       3.044046300890       3.411485981379       3.645266801811       0.781504508434      -0.033564857672       0.491229834860
67 1       3.044057079664       3.411448259976       3.645249726857      -0.781492513718      -0.033536117754      -0.491223776385
68 1       3.044060367690       3.411472692615       3.645242133303       0.781540495072       0.033545034333      -0.491235165727
69 1       3.044062136347       3.411490689189       3.645249912649      -0.781504613736      -0.033556297779      -0.491240208978
70 1       3.044069341166       3.411458777598       3.645248778846       0.781506324784      -0.033549894240       0.491229454159
71 1       3.044067563316       3.411479167068       3.645283006576      -0.781526399401       0.033547760764       0.491255360413
72 1       3.044079025887       3.411468094678       3.645263338064       0.781481909885       0.033542082847      -0.491227758795
73 1       3.411485981379       3.645266801811       3.044046300890       0.491229834860       0.781504508434      -0.033564857672
74 1       3.411490689189       3.645249912649       3.044062136347      -0.491240208978      -0.781504613736      -0.033556297779
75 1       3.645266801811       3.044046300890       3.411485981379      -0.033564857672       0.491229834860       0.781504508434
76 1       3.645283006576       3.044067563316       3.411479167068       0.033547760764       0.491255360413      -0.781526399401
77 1       3.645242133303       3.044060367690       3.411472692615       0.033545034333      -0.491235165727       0.781540495072
78 1       3.645249912649       3.044062136347       3.411490689189      -0.033556297779      -0.491240208978      -0.781504613736
79 1       3.411468094678       3.645263338064       3.044079025887      -0.491227758795       0.781481909885       0.033542082847
80 1       3.411467428275       3.645238417409       3.044068262432       0.491202864045      -0.781509702152       0.033561696521
