ITEM: TIMESTEP
0
ITEM: NUMBER OF ATOMS
80
ITEM: BOX BOUNDS pp pp pp
0.0000000000000000e+00 9.2227256640000004e+00
0.0000000000000000e+00 9.2227256640000004e+00
0.0000000000000000e+00 9.2227256640000004e+00
ITEM: ATOMS id type x y z fx fy fz
1 2       6.917040000000       2.305680000000       2.305680000000       0.000096903477       0.000002822197       0.000062849498
2 2       6.917040000000       4.285650000000       4.611360000000       0.000075156365       0.017484008866       0.000053594707
3 2       0.000000000000       6.917040000000       0.325710000000       0.000008209755       0.000064815277      -0.017445127212
4 2       0.000000000000       2.305680000000       4.285650000000      -0.000027647852       0.000048292456       0.017504646417
5 2       0.325710000000       0.000000000000       6.917040000000      -0.017445127212       0.000008209755       0.000064815277
6 2       0.325710000000       4.611360000000       2.305680000000      -0.017435359210       0.000017731777       0.000037951076
7 2       2.305680000000       4.285650000000       0.000000000000       0.000048292456       0.017504646417      -0.000027647852
8 2       2.305680000000       6.917040000000       2.305680000000       0.000062849498       0.000096903477       0.000002822197
9 2       2.305680000000       2.305680000000       2.305680000000       0.000037366962       0.000037366962       0.000037366962
10 2       2.305680000000       2.305680000000       6.917040000000       0.000002822197       0.000062849498       0.000096903477
11 2       2.305680000000       0.325710000000       4.611360000000       0.000037951076      -0.017435359210       0.000017731777
12 2       4.285650000000       0.000000000000       2.305680000000       0.017504646417      -0.000027647852       0.000048292456
13 2       4.285650000000       4.611360000000       6.917040000000       0.017484008866       0.000053594707       0.000075156365
14 2       4.611360000000       2.305680000000       0.325710000000       0.000017731777       0.000037951076      -0.017435359210
15 2       4.611360000000       6.917040000000       4.285650000000       0.000053594707       0.000075156365       0.017484008866
16 2       6.917040000000       0.325710000000       0.000000000000       0.000064815277      -0.017445127212       0.000008209755
17 2       2.305680000000       6.917040000000       6.917040000000       0.000043508269       0.000088636486       0.000094778352
18 2       2.305680000000       8.897020000000       0.000000000000       0.000026800626       0.017378240396      -0.000004534434
19 2       4.611360000000       2.305680000000       4.937070000000       0.000040841771       0.000037137230      -0.017464113210
20 2       4.611360000000       6.917040000000       8.897020000000       0.000004989147       0.000075961746       0.017357606284
21 2       4.937070000000       4.611360000000       2.305680000000      -0.017464113210       0.000040841771       0.000037137230
22 2       4.937070000000       0.000000000000       6.917040000000      -0.017473879138      -0.000040397179       0.000086302769
23 2       6.917040000000       8.897020000000       4.611360000000       0.000075961746       0.017357606284       0.000004989147
24 2       6.917040000000       2.305680000000       6.917040000000       0.000094778352       0.000043508269       0.000088636486
25 2       6.917040000000       6.917040000000       6.917040000000       0.000036885463       0.000036885463       0.000036885463
26 2       6.917040000000       6.917040000000       2.305680000000       0.000088636486       0.000094778352       0.000043508269
27 2       6.917040000000       4.937070000000       0.000000000000       0.000086302769      -0.017473879138      -0.000040397179
28 2       8.897020000000       4.611360000000       6.917040000000       0.017357606284       0.000004989147       0.000075961746
29 2       8.897020000000       0.000000000000       2.305680000000       0.017378240396      -0.000004534434       0.000026800626
30 2       0.000000000000       6.917040000000       4.937070000000      -0.000040397179       0.000086302769      -0.017473879138
31 2       0.000000000000       2.305680000000       8.897020000000      -0.000004534434       0.000026800626       0.017378240396
32 2       2.305680000000       4.937070000000       4.611360000000       0.000037137230      -0.017464113210       0.000040841771
33 1       8.145550000000       5.615600000000       1.452630000000       0.025735642614      -0.007241824058      -0.027192373306
34 1       8.145550000000       3.607130000000       3.158740000000       0.025747263699       0.007161340943       0.027108580481
35 1       8.218490000000       1.452630000000       1.077180000000       0.007226066995      -0.027178366617      -0.025763311790
36 1       8.218490000000       3.158740000000       5.688540000000       0.007224897570       0.027083222695      -0.025787294529
37 1       1.004240000000       3.158740000000       1.077180000000      -0.007297144017       0.027067522804      -0.025835836183
38 1       1.004240000000       1.452630000000       5.688540000000      -0.007307187875      -0.027152764824      -0.025780322842
39 1       1.077180000000       8.218490000000       1.452630000000      -0.025763311790       0.007226066995      -0.027178366617
40 1       1.077180000000       1.004240000000       3.158740000000      -0.025835836183      -0.007297144017       0.027067522804
41 1       1.452630000000       5.688540000000       1.004240000000      -0.027152764824      -0.025780322842      -0.007307187875
42 1       1.452630000000       3.534180000000       3.607130000000      -0.027173127538       0.025844972026       0.007203403319
43 1       1.452630000000       1.077180000000       8.218490000000      -0.027178366617      -0.025763311790       0.007226066995
44 1       1.452630000000       8.145550000000       5.615600000000      -0.027192373306       0.025735642614      -0.007241824058
45 1       3.158740000000       3.534180000000       5.615600000000       0.027076558462       0.025912852447      -0.007272674287
46 1       3.158740000000       1.077180000000       1.004240000000       0.027067522804      -0.025835836183      -0.007297144017
47 1       3.158740000000       8.145550000000       3.607130000000       0.027108580481       0.025747263699       0.007161340943
48 1       3.158740000000       5.688540000000       8.218490000000       0.027083222695      -0.025787294528       0.007224897570
49 1       3.534180000000       3.607130000000       1.452630000000       0.025844972026       0.007203403319      -0.027173127538
50 1       3.534180000000       5.615600000000       3.158740000000       0.025912852447      -0.007272674287       0.027076558462
51 1       3.607130000000       1.452630000000       3.534180000000       0.007203403319      -0.027173127538       0.025844972026
52 1       3.607130000000       3.158740000000       8.145550000000       0.007161340943       0.027108580481       0.025747263699
53 1       5.615600000000       1.452630000000       8.145550000000      -0.007241824058      -0.027192373306       0.025735642614
54 1       5.615600000000       3.158740000000       3.534180000000      -0.007272674287       0.027076558462       0.025912852447
55 1       5.688540000000       8.218490000000       3.158740000000      -0.025787294529       0.007224897570       0.027083222695
56 1       5.688540000000       1.004240000000       1.452630000000      -0.025780322842      -0.007307187875      -0.027152764824
57 1       3.534180000000       1.004240000000       6.063990000000       0.025889682157      -0.007312998118      -0.027138100754
58 1       3.534180000000       8.218490000000       7.770100000000       0.025879894525       0.007240391198       0.027118610846
59 1       3.607130000000       6.063990000000       5.688540000000       0.007171698871      -0.027183145449      -0.025737963335
60 1       3.607130000000       7.770100000000       1.077180000000       0.007171333456       0.027147965465      -0.025776716397
61 1       5.615600000000       7.770100000000       5.688540000000      -0.007250651503       0.027136621353      -0.025789070346
62 1       5.615600000000       6.063990000000       1.077180000000      -0.007242148463      -0.027181714700      -0.025781860325
63 1       5.688540000000       3.607130000000       6.063990000000      -0.025737963335       0.007171698871      -0.027183145449
64 1       5.688540000000       5.615600000000       7.770100000000      -0.025789070346      -0.007250651503       0.027136621353
65 1       6.063990000000       1.077180000000       5.615600000000      -0.027181714700      -0.025781860326      -0.007242148463
66 1       6.063990000000       8.145550000000       8.218490000000      -0.027184368786       0.025719445338       0.007199868466
67 1       6.063990000000       5.688540000000       3.607130000000      -0.027183145449      -0.025737963335       0.007171698871
68 1       6.063990000000       3.534180000000       1.004240000000      -0.027138100754       0.025889682157      -0.007312998118
69 1       7.770100000000       8.145550000000       1.004240000000       0.027123581170       0.025775196093      -0.007280626087
70 1       7.770100000000       5.688540000000       5.615600000000       0.027136621353      -0.025789070346      -0.007250651503
71 1       7.770100000000       3.534180000000       8.218490000000       0.027118610846       0.025879894525       0.007240391198
72 1       7.770100000000       1.077180000000       3.607130000000       0.027147965465      -0.025776716397       0.007171333456
73 1       8.145550000000       8.218490000000       6.063990000000       0.025719445338       0.007199868466      -0.027184368786
74 1       8.145550000000       1.004240000000       7.770100000000       0.025775196093      -0.007280626087       0.027123581170
75 1       8.218490000000       6.063990000000       8.145550000000       0.007199868466      -0.027184368786       0.025719445338
76 1       8.218490000000       7.770100000000       3.534180000000       0.007240391198       0.027118610846       0.025879894525
77 1       1.004240000000       6.063990000000       3.534180000000      -0.007312998118      -0.027138100754       0.025889682157
78 1       1.004240000000       7.770100000000       8.145550000000      -0.007280626087       0.027123581170       0.025775196093
79 1       1.077180000000       3.607130000000       7.770100000000      -0.025776716397       0.007171333456       0.027147965465
80 1       1.077180000000       5.615600000000       6.063990000000      -0.025781860326      -0.007242148463      -0.027181714700
