ITEM: TIMESTEP
0
ITEM: NUMBER OF ATOMS
30
ITEM: BOX BOUNDS xy xz yz pp pp pp
-2.4913480660000000e+00 4.9826961519999999e+00 -2.4913480660000000e+00
0.0000000000000000e+00 4.3151418589999997e+00 0.0000000000000000e+00
0.0000000000000000e+00 1.3413774749000000e+01 0.0000000000000000e+00
ITEM: ATOMS id type c_pe_atom
1 2      -2.427045378798
2 2      -2.426990480698
3 2      -2.427099619539
4 2      -2.427184104923
5 2      -2.426976862470
6 2      -2.427119801029
7 2      -2.426899532042
8 2      -2.426989399222
9 2      -2.427056338437
10 2      -2.427061931248
11 2      -2.427009617028
12 2      -2.426963223507
13 1      -8.255815532496
14 1      -8.255769535749
15 1      -8.255809675502
16 1      -8.255839910894
17 1      -8.255853905874
18 1      -8.255841672192
19 1      -8.255851842666
20 1      -8.255844438376
21 1      -8.255869886658
22 1      -8.255854165094
23 1      -8.255804382840
24 1      -8.255773613274
25 1      -8.255862754022
26 1      -8.255844955038
27 1      -8.255822368123
28 1      -8.255794169692
29 1      -8.255858385108
30 1      -8.255805593714
