ITEM: TIMESTEP
0
ITEM: NUMBER OF ATOMS
30
ITEM: BOX BOUNDS xy xz yz pp pp pp
-2.4913480660000000e+00 4.9826961519999999e+00 -2.4913480660000000e+00
0.0000000000000000e+00 4.3151418589999997e+00 0.0000000000000000e+00
0.0000000000000000e+00 1.3413774749000000e+01 0.0000000000000000e+00
ITEM: ATOMS id type x y z fx fy fz
1 2       0.000000000000       0.000000000000       1.933450000000       0.000003460563      -0.000035710916      -0.018368643383
2 2       0.000000006667       2.876760000000       0.302180000000      -0.000008454614      -0.000011641555       0.018347152350
3 2       2.491350003333       1.438380000000       2.537800000000      -0.000025767508       0.000018911451       0.018443881903
4 2       0.000000006667       2.876760000000       4.169090000000      -0.000011735305       0.000010268089      -0.018504732889
5 2       2.491350003333       1.438380000000       6.404710000000      -0.000077393650       0.000012446163      -0.018342784080
6 2       0.000000000000       0.000000000000       4.773440000000      -0.000019375629      -0.000000798453       0.018333369859
7 2       0.000000006667       2.876760000000       7.009070000000       0.000010002746      -0.000005016271       0.018377667141
8 2       0.000000000000       0.000000000000       8.640340000000       0.000035520421      -0.000055764315      -0.018447698937
9 2       0.000000006667       2.876760000000      10.875970000000       0.000037513066       0.000018545756      -0.018408586647
10 2       2.491350003333       1.438380000000       9.244690000000      -0.000034942590       0.000012108645       0.018447926934
11 2       0.000000000000       0.000000000000      11.480320000000       0.000013181092       0.000017772396       0.018443239802
12 2       2.491350003333       1.438380000000      13.111590000000      -0.000052564032       0.000008616940      -0.018330220664
13 1      -0.754889996970       1.307510000000       3.353440000000       0.012080269803      -0.020889172243       0.000058234520
14 1       1.509790000000       0.000000000000       3.353440000000      -0.024244531107      -0.000052828720       0.000078265045
15 1       1.736450006970       3.007630000000       3.353440000000       0.012168309773       0.020918314457       0.000041187903
16 1       3.246240000303       0.130860000000       1.117810000000      -0.012059478663       0.021080267590       0.000061828775
17 1       3.246240006363       2.745890000000       1.117810000000      -0.012130936659      -0.020926954743       0.000065229964
18 1       0.981560003333       1.438380000000       1.117810000000       0.024237245080      -0.000047534395       0.000036674382
19 1       1.736450006363       2.745890000000       7.824700000000       0.012246919592      -0.020928152618       0.000109167134
20 1       4.001140003333       1.438380000000       7.824700000000      -0.024299040480      -0.000037026265       0.000056140450
21 1       1.736460000303       0.130860000000       7.824700000000       0.011998879313       0.021086346371       0.000097467414
22 1       0.754890003637       1.569250000000       5.589080000000      -0.012100024819       0.020918994206      -0.000094939608
23 1       0.754890009697       4.184280000000       5.589080000000      -0.012012044380      -0.021071897621      -0.000138829459
24 1      -1.509789993333       2.876760000000       5.589080000000       0.024230241991       0.000077965778      -0.000127464578
25 1      -0.754889990303       4.184280000000      12.295960000000       0.012034026965      -0.021063731463      -0.000063894635
26 1       1.509790006667       2.876760000000      12.295960000000      -0.024271430827       0.000034037969      -0.000054977613
27 1      -0.754899996363       1.569250000000      12.295960000000       0.012262194424       0.020937411168      -0.000082777597
28 1      -1.736449993030       3.007630000000      10.060330000000      -0.012185498467       0.020914213831      -0.000040835332
29 1       0.754890003030       1.307510000000      10.060330000000      -0.012033265915      -0.020911704785      -0.000005255674
30 1       3.472910000000       0.000000000000      10.060330000000       0.024208719817      -0.000028286447       0.000014207523
