ITEM: TIMESTEP
0
ITEM: NUMBER OF ATOMS
30
ITEM: BOX BOUNDS xy xz yz pp pp pp
-2.4913480660000000e+00 4.9826961519999999e+00 -2.4913480660000000e+00
0.0000000000000000e+00 4.3151418589999997e+00 0.0000000000000000e+00
0.0000000000000000e+00 1.3413774749000000e+01 0.0000000000000000e+00
ITEM: ATOMS id type v_vir_xx v_vir_yy v_vir_zz v_vir_xy v_vir_xz v_vir_yz
1 2      -5.357347112370      -5.357391030583      -4.793384910315       0.000012001338      -0.000004355281       0.000020774409
2 2      -5.357394558136      -5.357438172652      -4.793549150181      -0.000030973469       0.000003071422      -0.000009445879
3 2      -5.357282883792      -5.357301235930      -4.793406935803      -0.000018416228      -0.000003559162       0.000019030784
4 2      -5.357306288343      -5.357313618168      -4.793372749842       0.000016008093       0.000008728228       0.000005887050
5 2      -5.357405557587      -5.357458404485      -4.793623727311       0.000014252454       0.000026380827      -0.000012326464
6 2      -5.357337537743      -5.357402289257      -4.793316423981       0.000039781475       0.000011209256       0.000004989561
7 2      -5.357466636268      -5.357482657531      -4.793639685222       0.000015411842       0.000009645537      -0.000006700920
8 2      -5.357368699884      -5.357437281634      -4.793522657937       0.000021405351      -0.000002010891       0.000024493234
9 2      -5.357387047906      -5.357393827684      -4.793502779809      -0.000012461472      -0.000023285408       0.000015520765
10 2      -5.357338300880      -5.357384635712      -4.793531988949       0.000006030358      -0.000010337190       0.000025050395
11 2      -5.357356980471      -5.357410805810      -4.793493531737      -0.000028405818      -0.000015817663       0.000002778743
12 2      -5.357480760025      -5.357441874559      -4.793578225729      -0.000034107457       0.000000412320      -0.000012002446
13 1       2.015599063844       2.830116962465       2.167196086376      -0.705352461749       0.336256992996       0.194136359228
14 1       3.237263661267       1.608392302202       2.167186788003      -0.000013294301       0.000000630778      -0.388269688441
15 1       2.015600691955       2.830098037602       2.167187930684       0.705325773805      -0.336256998472       0.194143216362
16 1       2.015611186649       2.830032769982       2.167148273977      -0.705353617033       0.336241170672       0.194112861075
17 1       2.015582122627       2.830097105545       2.167172329758       0.705343481106      -0.336248488342       0.194135223360
18 1       3.237303941732       1.608375600070       2.167161060679       0.000028268494       0.000003061920      -0.388256193695
19 1       2.015558934368       2.830132288541       2.167204670186      -0.705325196982       0.336227015457       0.194142613544
20 1       3.237283342474       1.608369586782       2.167188009838      -0.000049448124       0.000001821109      -0.388242202675
21 1       2.015642086668       2.830033186766       2.167182872641       0.705389312916      -0.336237626292       0.194102732117
22 1       2.015615087190       2.830120517170       2.167174239653      -0.705343670907       0.336256995090       0.194130267863
23 1       2.015648294164       2.830033165052       2.167153711269       0.705356345649      -0.336249136810       0.194098434509
24 1       3.237289246469       1.608396490662       2.167170896263      -0.000044391307      -0.000002685669      -0.388245335132
25 1       2.015631279919       2.830032931680       2.167180271741      -0.705374357208       0.336244673449       0.194097704151
26 1       3.237292139986       1.608376831527       2.167189722433       0.000042937405      -0.000004595283      -0.388252965388
27 1       2.015542363853       2.830125006238       2.167198787040       0.705328010702      -0.336215944189       0.194150543186
28 1       2.015614429662       2.830133903188       2.167201180626      -0.705314457559       0.336244484276       0.194140138489
29 1       2.015676350904       2.830120982913       2.167209173672       0.705356591875      -0.336262789651       0.194130262385
30 1       3.237297933450       1.608423608930       2.167192253590       0.000000174001       0.000001463762      -0.388264782165
