80
Config_type=bulk_delta_phase Weight=1.0 Lattice="9.580341557 0.000000000 0.000000000 0.000000000 9.580341557 0.000000000 0.000000000 0.000000000 9.580341557" Energy=-679.06250860 Virial="-46.24985 0.00001 0.00000 0.00001 -46.24986 0.00002 0.00000 0.00002 -46.24972" pbc="T T T" Properties=species:S:1:pos:R:3:forces:R:3
Ga	      7.18526      2.39509      2.39509        -0.000088     -0.000104     -0.000111
Ga	      7.18526      4.43489      4.79017        -0.000071      0.000627      0.000035
Ga	      0.00000      7.18526      0.35528         0.000016     -0.000074     -0.000538
Ga	      0.00000      2.39509      4.43489         0.000064     -0.000104      0.000621
Ga	      0.35528      0.00000      7.18526        -0.000546      0.000018     -0.000076
Ga	      0.35528      4.79017      2.39509        -0.000540      0.000072     -0.000110
Ga	      2.39509      4.43489      0.00000        -0.000104      0.000626      0.000058
Ga	      2.39509      7.18526      2.39509        -0.000112     -0.000087     -0.000099
Ga	      2.39509      2.39509      2.39509        -0.000079     -0.000076     -0.000084
Ga	      2.39509      2.39509      7.18526        -0.000096     -0.000116     -0.000088
Ga	      2.39509      0.35528      4.79017        -0.000103     -0.000522      0.000072
Ga	      4.43489      0.00000      2.39509         0.000639      0.000057     -0.000105
Ga	      4.43489      4.79017      7.18526         0.000625      0.000043     -0.000062
Ga	      4.79017      2.39509      0.35528         0.000076     -0.000107     -0.000537
Ga	      4.79017      7.18526      4.43489         0.000036     -0.000070      0.000616
Ga	      7.18526      0.35528      0.00000        -0.000067     -0.000526      0.000027
Ga	      2.39509      7.18526      7.18526        -0.000093     -0.000102     -0.000114
Ga	      2.39509      9.22506      0.00000        -0.000076      0.000622      0.000026
Ga	      4.79017      2.39509      5.14545         0.000037     -0.000072     -0.000519
Ga	      4.79017      7.18526      9.22506         0.000076     -0.000111      0.000634
Ga	      5.14545      4.79017      2.39509        -0.000523      0.000041     -0.000076
Ga	      5.14545      0.00000      7.18526        -0.000533      0.000071     -0.000095
Ga	      7.18526      9.22506      4.79017        -0.000103      0.000618      0.000076
Ga	      7.18526      2.39509      7.18526        -0.000108     -0.000097     -0.000101
Ga	      7.18526      7.18526      7.18526        -0.000060     -0.000069     -0.000071
Ga	      7.18526      7.18526      2.39509        -0.000103     -0.000114     -0.000099
Ga	      7.18526      5.14545      0.00000        -0.000106     -0.000521      0.000064
Ga	      9.22506      4.79017      7.18526         0.000633      0.000082     -0.000112
Ga	      9.22506      0.00000      2.39509         0.000622      0.000025     -0.000076
Ga	      0.00000      7.18526      5.14545         0.000062     -0.000108     -0.000508
Ga	      0.00000      2.39509      9.22506         0.000020     -0.000082      0.000626
Ga	      2.39509      5.14545      4.79017        -0.000074     -0.000517      0.000038
O	      8.50497      5.87922      1.52395         0.007587      0.000825      0.003271
O	      8.50497      3.70112      3.26622         0.007595     -0.000801     -0.003233
O	      8.49129      1.52395      1.07537        -0.000834      0.003258     -0.007597
O	      8.49129      3.26622      5.86554        -0.000807     -0.003243     -0.007569
O	      1.08905      3.26622      1.07537         0.000846     -0.003226     -0.007580
O	      1.08905      1.52395      5.86554         0.000852      0.003251     -0.007589
O	      1.07537      8.49129      1.52395        -0.007565     -0.000789      0.003264
O	      1.07537      1.08905      3.26622        -0.007558      0.000824     -0.003216
O	      1.52395      5.86554      1.08905         0.003285     -0.007586      0.000825
O	      1.52395      3.71480      3.70112         0.003267      0.007602     -0.000793
O	      1.52395      1.07537      8.49129         0.003290     -0.007617     -0.000787
O	      1.52395      8.50497      5.87922         0.003283      0.007626      0.000814
O	      3.26622      3.71480      5.87922        -0.003237      0.007591      0.000818
O	      3.26622      1.07537      1.08905        -0.003258     -0.007604      0.000814
O	      3.26622      8.50497      3.70112        -0.003256      0.007627     -0.000785
O	      3.26622      5.86554      8.49129        -0.003261     -0.007586     -0.000800
O	      3.71480      3.70112      1.52395         0.007574     -0.000794      0.003252
O	      3.71480      5.87922      3.26622         0.007563      0.000830     -0.003229
O	      3.70112      1.52395      3.71480        -0.000818      0.003247      0.007615
O	      3.70112      3.26622      8.50497        -0.000813     -0.003219      0.007610
O	      5.87922      1.52395      8.50497         0.000855      0.003248      0.007617
O	      5.87922      3.26622      3.71480         0.000837     -0.003239      0.007589
O	      5.86554      8.49129      3.26622        -0.007548     -0.000803     -0.003251
O	      5.86554      1.08905      1.52395        -0.007540      0.000823      0.003262
O	      3.71480      1.08905      6.31412         0.007562      0.000817      0.003247
O	      3.71480      8.49129      8.05639         0.007558     -0.000790     -0.003217
O	      3.70112      6.31412      5.86554        -0.000828      0.003272     -0.007571
O	      3.70112      8.05639      1.07537        -0.000833     -0.003222     -0.007587
O	      5.87922      8.05639      5.86554         0.000864     -0.003230     -0.007566
O	      5.87922      6.31412      1.07537         0.000853      0.003288     -0.007576
O	      5.86554      3.70112      6.31412        -0.007567     -0.000811      0.003276
O	      5.86554      5.87922      8.05639        -0.007553      0.000842     -0.003237
O	      6.31412      1.07537      5.87922         0.003293     -0.007586      0.000823
O	      6.31412      8.50497      8.49129         0.003305      0.007626     -0.000771
O	      6.31412      5.86554      3.70112         0.003298     -0.007570     -0.000814
O	      6.31412      3.71480      1.08905         0.003288      0.007585      0.000821
O	      8.05639      8.50497      1.08905        -0.003257      0.007616      0.000812
O	      8.05639      5.86554      5.87922        -0.003239     -0.007568      0.000851
O	      8.05639      3.71480      8.49129        -0.003234      0.007594     -0.000802
O	      8.05639      1.07537      3.70112        -0.003247     -0.007588     -0.000808
O	      8.50497      8.49129      6.31412         0.007590     -0.000790      0.003280
O	      8.50497      1.08905      8.05639         0.007574      0.000812     -0.003216
O	      8.49129      6.31412      8.50497        -0.000800      0.003273      0.007594
O	      8.49129      8.05639      3.71480        -0.000819     -0.003222      0.007585
O	      1.08905      6.31412      3.71480         0.000836      0.003260      0.007588
O	      1.08905      8.05639      8.50497         0.000848     -0.003209      0.007600
O	      1.07537      3.70112      8.05639        -0.007575     -0.000793     -0.003232
O	      1.07537      5.87922      6.31412        -0.007573      0.000827      0.003284
