ITEM: TIMESTEP
0
ITEM: NUMBER OF ATOMS
80
ITEM: BOX BOUNDS pp pp pp
0.0000000000000000e+00 9.3921226660000006e+00
0.0000000000000000e+00 9.3921226660000006e+00
0.0000000000000000e+00 9.3921226660000006e+00
ITEM: ATOMS id type c_pe_atom
1 2      -5.249515966377
2 2      -5.134057414303
3 2      -5.134061667323
4 2      -5.134059125860
5 2      -5.134061667323
6 2      -5.134059311957
7 2      -5.134059125860
8 2      -5.249515966377
9 2      -5.249515586743
10 2      -5.249515966377
11 2      -5.134059311957
12 2      -5.134059125860
13 2      -5.134057414303
14 2      -5.134059311957
15 2      -5.134057414303
16 2      -5.134061667323
17 2      -5.249516346010
18 2      -5.134061469193
19 2      -5.134057099899
20 2      -5.134059757658
21 2      -5.134057099899
22 2      -5.134059455291
23 2      -5.134059757658
24 2      -5.249516346010
25 2      -5.249516725639
26 2      -5.249516346010
27 2      -5.134059455291
28 2      -5.134059757658
29 2      -5.134061469193
30 2      -5.134059455291
31 2      -5.134061469193
32 2      -5.134057099899
33 1     -10.720460542595
34 1     -10.720459746235
35 1     -10.720460016960
36 1     -10.720460556776
37 1     -10.720460549057
38 1     -10.720463119498
39 1     -10.720460016960
40 1     -10.720460549057
41 1     -10.720463119498
42 1     -10.720463704523
43 1     -10.720460016960
44 1     -10.720460542595
45 1     -10.720462470247
46 1     -10.720460549057
47 1     -10.720459746235
48 1     -10.720460556776
49 1     -10.720463704523
50 1     -10.720462470247
51 1     -10.720463704523
52 1     -10.720459746235
53 1     -10.720460542595
54 1     -10.720462470247
55 1     -10.720460556776
56 1     -10.720463119498
57 1     -10.720461813732
58 1     -10.720459920346
59 1     -10.720461825850
60 1     -10.720459924751
61 1     -10.720461260915
62 1     -10.720460051762
63 1     -10.720461825850
64 1     -10.720461260915
65 1     -10.720460051762
66 1     -10.720457323340
67 1     -10.720461825850
68 1     -10.720461813732
69 1     -10.720458524787
70 1     -10.720461260915
71 1     -10.720459920346
72 1     -10.720459924751
73 1     -10.720457323340
74 1     -10.720458524787
75 1     -10.720457323340
76 1     -10.720459920346
77 1     -10.720461813732
78 1     -10.720458524787
79 1     -10.720459924751
80 1     -10.720460051762
