ITEM: TIMESTEP
0
ITEM: NUMBER OF ATOMS
160
ITEM: BOX BOUNDS pp pp pp
0.0000000000000000e+00 8.2896671649999991e+00
0.0000000000000000e+00 8.2896671649999991e+00
0.0000000000000000e+00 2.4869001493999999e+01
ITEM: ATOMS id type x y z fx fy fz
1 2       1.204470000000       5.150160000000      21.859880000000      -0.304220042021       0.028154490219      -0.023538715085
2 2       5.146200000000       0.836140000000      13.539010000000      -0.025773682063       0.073926974566      -0.177977390167
3 2       7.078960000000       7.327610000000       7.316670000000      -0.060843578808      -0.187673508146      -0.194094144864
4 2       7.215300000000       7.056930000000      15.617090000000      -0.117786323418       0.465437429654       0.206922744357
5 2       5.168970000000       5.201800000000       0.971610000000       0.225329221913      -0.031057285909      -0.156899731145
6 2       2.998720000000       3.173060000000       7.143250000000       0.236361321323      -0.036124323802       0.142981107982
7 2       0.937110000000       1.039470000000       1.092060000000      -0.010313779803      -0.028009191257      -0.062761525907
8 2       5.115320000000       1.026760000000       5.190220000000       0.033417077486      -0.019405310763      -0.186705216982
9 2       3.148760000000       2.928150000000      15.486680000000      -0.069985208541       0.049641158704       0.000310159455
10 2       5.332180000000       1.103000000000      21.695180000000       0.048549719463      -0.114037269012       0.205766930397
11 2       3.100610000000       7.174570000000      11.400520000000       0.020933154787       0.108727018131      -0.153789387157
12 2       7.343570000000       3.162140000000      19.614290000000      -0.119231493077      -0.374461898293      -0.035449451155
13 2       1.008680000000       5.042680000000      13.355660000000      -0.044770701292       0.291801232880       0.112212075535
14 2       7.256800000000       3.184120000000       3.171410000000      -0.276521877954       0.018546717726       0.162545151376
15 2       5.047930000000       5.287640000000       9.272900000000       0.201157190038      -0.016659637334       0.202639697428
16 2       7.281350000000       7.360330000000      23.863230000000       0.074908128978      -0.025984640851       0.021080924449
17 2       3.164000000000       7.379300000000      19.742390000000       0.000548881416      -0.057432958550      -0.024218064920
18 2       0.900680000000       1.068670000000       9.421340000000       0.015668845561      -0.241533395109      -0.132628961978
19 2       3.197040000000       7.349040000000       3.051270000000      -0.015842079172       0.021925493366       0.005168866658
20 2       1.162700000000       1.028730000000      17.643240000000      -0.071096316340      -0.112580267712      -0.093783740795
21 2       3.881920000000       0.194520000000       8.303340000000       0.066301493549      -0.012677688468       0.042711819147
22 2       6.080510000000       6.048130000000      12.410500000000       0.272809909664       0.094354737021      -0.212034449364
23 2       2.141170000000       2.124860000000      20.740130000000      -0.042414653361      -0.219697621866       0.009697062612
24 2       6.339340000000       6.226700000000      20.682510000000      -0.015425823377       0.082753704517       0.354230029518
25 2       1.937680000000       6.329390000000       8.198080000000      -0.091807102732      -0.080543737791      -0.046136491293
26 2       8.247310000000       2.039640000000       6.178730000000      -0.205406231980      -0.113376070239       0.053099905335
27 2       1.974720000000       2.071410000000       4.184290000000       0.055314027099      -0.069681762669      -0.153319104594
28 2       0.040730000000       1.992070000000      14.459620000000       0.032230706349      -0.000629358603       0.398131016476
29 2       0.170340000000       6.140410000000      18.610020000000      -0.045842076488       0.294023476647       0.199357065371
30 2       6.207310000000       0.056310000000       2.082350000000       0.024229694550      -0.014378976699      -0.045314743262
31 2       6.037410000000       0.076280000000      10.425080000000       0.386409224476      -0.190427306206       0.170273366592
32 2       4.138710000000       2.175970000000      18.604170000000       0.264279095948      -0.071172348317      -0.232200507711
33 2       6.347540000000       8.242200000000      18.650900000000      -0.262377588174       0.425850055920      -0.161697712757
34 2       6.289090000000       2.044240000000      16.567620000000      -0.081160807497      -0.547269731581       0.235818142764
35 2       0.159250000000       2.051420000000      22.851020000000      -0.149762300737       0.197872254377       0.108995814107
36 2       2.008750000000       8.073750000000      14.604100000000      -0.138827565553       0.077984695300       0.132759000017
37 2       3.975390000000       5.960760000000      14.515810000000       0.124181861289       0.063370219501       0.066395265108
38 2       6.198590000000       4.165730000000       6.232710000000      -0.343057036139       0.184666101127      -0.265059289733
39 2       4.162930000000       6.323720000000      22.837430000000       0.279696177167       0.369864629347      -0.096133674701
40 2       0.099680000000       4.146900000000      16.581350000000       0.119958124067      -0.267726146889      -0.040914600678
41 2       2.067550000000       4.198850000000       2.070370000000      -0.012075680432      -0.007566617687       0.015451357141
42 2       4.104920000000       4.258210000000      20.673520000000       0.171810858809       0.014757314078      -0.288673790470
43 2       4.108010000000       8.092480000000      16.643750000000       0.385816877339       0.191278178109       0.102919872009
44 2       6.227710000000       4.200920000000      22.761650000000       0.413427275529      -0.129392090192       0.275992870639
45 2       8.225610000000       6.135840000000      10.348340000000      -0.171293069302       0.298911011706       0.215321495174
46 2       8.271220000000       8.230000000000      12.452720000000      -0.165191329820      -0.233636242317      -0.150340026554
47 2       0.044960000000       4.229260000000       0.029650000000      -0.446444578684      -0.029956468125      -0.249295776601
48 2       6.161930000000       4.025130000000      14.481690000000       0.034368826127       0.037220063279      -0.293590540594
49 2       4.085000000000       4.155300000000       4.117980000000       0.414315522727       0.103931512334       0.211383218049
50 2       2.109700000000       2.015560000000      12.358150000000       0.166064865478      -0.140982941357       0.216626922679
51 2       2.074510000000       4.064640000000      10.375360000000       0.102984032815       0.255608252926      -0.137972769545
52 2       0.038290000000       6.358130000000       2.176320000000       0.074644458129      -0.106737714208      -0.075713904644
53 2       0.201160000000       8.251850000000      20.826240000000      -0.179991174676      -0.132104820057       0.038625845233
54 2       4.079870000000       2.029450000000       1.961610000000      -0.055381029862       0.110355258490       0.052039047471
55 2       6.138370000000       2.040600000000      24.824730000000       0.076045119096       0.226898686576      -0.190850300943
56 2       8.257550000000       4.104980000000       8.287630000000       0.043823627361      -0.015090969900      -0.023429169501
57 2       6.028700000000       2.145890000000       8.392550000000       0.089902235082       0.121816240556      -0.033654735157
58 2       3.975180000000       6.359150000000       6.156460000000       0.119579493268      -0.382315419672      -0.161772356887
59 2       6.273880000000       6.351080000000       4.195660000000      -0.032766459828      -0.298219760537       0.143339901408
60 2       2.156890000000       6.322660000000      24.832370000000      -0.156885750033       0.088584439277       0.122987825783
61 2       5.122170000000       3.092470000000      11.441010000000      -0.317833573343       0.040141655373       0.098018106317
62 2       3.139880000000       1.073530000000      23.811930000000       0.076926256231      -0.481761888802       0.016427423218
63 2       3.149080000000       5.113850000000      17.612010000000      -0.243810030123      -0.068154572990      -0.017737059663
64 2       0.977370000000       7.312060000000       5.172200000000      -0.016951831553       0.322280400964      -0.035448930723
65 1       2.096040000000       2.130120000000       2.104110000000       0.119293658322       0.179658112184       0.122983868855
66 1       6.076110000000       6.172670000000       6.182990000000       0.108149212676      -0.000679531555      -0.085267261573
67 1       4.179530000000       8.239730000000       6.353760000000       0.092226944385       0.080135090239      -0.046308913657
68 1       4.258910000000       0.127380000000       2.035370000000       0.012993365040       0.015959550830       0.130116794437
69 1       8.178380000000       6.256780000000       4.088270000000       0.289068670602      -0.183697073612       0.245921723538
70 1       0.022970000000       2.125780000000       4.221060000000       0.169665232754       0.114728574014       0.240755051182
71 1       6.146620000000       4.134590000000       8.258600000000       0.280849260713      -0.152884732622      -0.127718715176
72 1       1.921730000000       4.375190000000       0.199050000000      -0.057719964230       0.014364400764       0.044837856739
73 1       8.285860000000       4.300660000000       2.047610000000       0.248313170677       0.052895324147      -0.150900990031
74 1       8.069040000000       3.993960000000       6.418250000000      -0.059452848996      -0.092560414363       0.104584118907
75 1       4.231930000000       2.125180000000       0.043460000000      -0.306661413789       0.239847921984      -0.185987462023
76 1       3.973350000000       6.328940000000       8.161990000000      -0.086706409010       0.058267274759      -0.045982766247
77 1       2.092870000000       0.080960000000       4.124250000000       0.025953175625       0.132172068549       0.006448122808
78 1       6.097540000000       8.243690000000       4.050480000000      -0.103601692360       0.127329002263       0.016032877126
79 1       2.068190000000       6.286100000000       6.276740000000      -0.223623928268      -0.152242296702      -0.236679768093
80 1       6.156340000000       2.107750000000       2.009610000000      -0.075429425315      -0.081704760071      -0.096194973565
81 1       4.134890000000       4.086680000000       2.093010000000      -0.251567877471      -0.043361572611       0.178026337850
82 1       4.179930000000       4.284830000000       6.117200000000      -0.207167887070      -0.163929918092       0.089567359372
83 1       8.088280000000       2.081430000000       8.263840000000       0.019157469908       0.297867219112      -0.210340482100
84 1       0.046940000000       6.237070000000       0.093450000000       0.197594514066      -0.100369592559      -0.131805937828
85 1       8.147020000000       0.065540000000       6.233760000000       0.086398973461       0.099237416876      -0.060899651820
86 1       8.157600000000       8.263980000000       2.107430000000       0.012079896735      -0.009284242416      -0.138110392166
87 1       4.198280000000       6.172690000000       4.180300000000      -0.181540246886       0.079357465600       0.036888401406
88 1       4.077410000000       2.148720000000       4.059530000000      -0.173891292161       0.045468356986       0.078593898541
89 1       6.186470000000       2.147290000000       6.290370000000       0.158247653284       0.027248101223      -0.033988047021
90 1       2.032190000000       6.262830000000       2.037850000000      -0.132295904213      -0.172820168095      -0.087000898807
91 1       2.208950000000       4.019380000000       3.939980000000       0.070967686600       0.006644240067      -0.022784793754
92 1       6.093970000000       4.272590000000       4.221880000000       0.103708494659       0.017550589351      -0.030033118296
93 1       6.300560000000       0.146450000000       0.110620000000       0.113967642421      -0.054969265930       0.028370344684
94 1       1.995370000000       8.245050000000       8.406950000000       0.154343187955       0.182786825009       0.150657829727
95 1       6.257530000000       6.285100000000       2.135070000000       0.077842878453       0.067515989974       0.114202241050
96 1       1.908850000000       2.111880000000       6.116920000000      -0.055287131230      -0.023322591820       0.009666327172
97 1       2.025110000000       2.118850000000      10.421050000000       0.043138094266       0.034814409506       0.094278265620
98 1       6.135420000000       6.060940000000      14.435330000000      -0.166871905475      -0.194527705339      -0.155674951054
99 1       4.063520000000       8.095110000000      14.642990000000       0.022029349102      -0.160841774883       0.098088113943
100 1       4.154460000000       8.149070000000      10.242170000000      -0.139076793706      -0.059959397376       0.082403250525
101 1       8.150580000000       6.223580000000      12.350800000000       0.032890167149      -0.151372390782      -0.028467996120
102 1       0.151090000000       1.809860000000      12.593760000000       0.017861411116      -0.058052117200      -0.091398819691
103 1       6.455230000000       3.902990000000      16.369860000000      -0.004455860994       0.096586077810       0.004788697307
104 1       2.000670000000       4.270980000000       8.309250000000      -0.266825424379      -0.044810318152       0.172500346088
105 1       0.109030000000       4.267810000000      10.157040000000       0.024079921851       0.017596146547      -0.054476285402
106 1       8.282920000000       3.978220000000      14.528060000000      -0.168355353542      -0.037468746560       0.131862374209
107 1       4.110410000000       2.085100000000       8.169990000000      -0.210888895742      -0.128236098983      -0.187712923372
108 1       4.124950000000       6.202970000000      16.466470000000       0.115776575880      -0.096501887165       0.252778041590
109 1       1.999340000000       8.243400000000      12.502030000000      -0.012538993738       0.100297223000      -0.138681936139
110 1       6.262310000000       8.123510000000      12.395210000000      -0.050351009966       0.166596481596       0.029150985393
111 1       2.070880000000       6.173600000000      14.384680000000       0.132116571821      -0.290384120231      -0.218839004340
112 1       6.102520000000       1.988600000000      10.305830000000       0.214525813356       0.216455370492       0.193271657370
113 1       4.060350000000       4.197620000000      10.368740000000      -0.114691477492      -0.104784110453       0.153813274151
114 1       4.230190000000       4.070790000000      14.553070000000       0.025665994100       0.130767268095       0.107577546909
115 1       0.022490000000       2.017510000000      16.480600000000      -0.018816042821       0.223567044270       0.106476156810
116 1       8.234620000000       6.216040000000       8.320780000000       0.135534961268      -0.285236273179       0.116803138302
117 1       0.025500000000       8.187340000000      14.506410000000       0.146432813461       0.134500383673      -0.193942959139
118 1       8.106040000000       8.156830000000      10.450690000000       0.191493395821       0.176206856014      -0.050165966455
119 1       4.200400000000       6.257840000000      12.572860000000      -0.057798757265       0.070730973873       0.026966714844
120 1       4.100660000000       1.923400000000      12.478850000000      -0.113263325525      -0.007343947409      -0.068898481760
121 1       6.303030000000       1.951080000000      14.539310000000       0.107045907452       0.273197220299       0.058730547119
122 1       1.962950000000       6.138310000000      10.287940000000      -0.039546788441      -0.115533135562       0.043515742165
123 1       2.056570000000       3.968410000000      12.314400000000      -0.013548468328      -0.043355218408      -0.085772598576
124 1       6.189670000000       4.144950000000      12.543010000000       0.097506237767      -0.219754223123      -0.228178047326
125 1       6.033450000000       0.107100000000       8.421840000000      -0.068455815336       0.090603855496       0.056782492557
126 1       2.199240000000       0.021600000000      16.505700000000      -0.094985267493       0.082979698009       0.053294122613
127 1       6.221150000000       6.263590000000      10.408080000000      -0.004580617476      -0.169514590781       0.103320520563
128 1       2.059120000000       1.846550000000      14.424750000000      -0.249773844717       0.157858715864      -0.193174631401
129 1       2.242870000000       2.004460000000      18.767070000000      -0.034164219119      -0.092043619514       0.048946127489
130 1       6.266150000000       6.237360000000      22.706030000000      -0.175338817592      -0.056892282536       0.088964725257
131 1       4.281830000000       0.028370000000      22.760220000000       0.055963634222      -0.155702558772       0.089964237846
132 1       4.326930000000       0.075690000000      18.602190000000      -0.123003160536      -0.320069780922       0.110913153035
133 1       0.100160000000       6.270150000000      20.736870000000      -0.097069603657       0.095491948726      -0.236293067768
134 1       0.101100000000       2.052430000000      20.786840000000       0.195576671439       0.076096540338       0.111340380948
135 1       6.328270000000       4.117990000000      24.783270000000      -0.122768727154      -0.005488630201       0.036630820584
136 1       2.082100000000       3.993670000000      16.558070000000      -0.034887409472       0.009189853321       0.068906291690
137 1       0.093900000000       4.192820000000      18.531520000000      -0.122526861705       0.198673929373      -0.225111021762
138 1       8.247280000000       4.109220000000      22.886440000000       0.143827901889       0.088388663293      -0.034477834391
139 1       4.290190000000       1.910160000000      16.639610000000      -0.042488504124       0.290062963139      -0.113100647506
140 1       4.114570000000       6.259090000000      24.784500000000      -0.196481548648      -0.150871810043      -0.199104515623
141 1       2.087720000000       0.149230000000      20.757640000000       0.062970093495       0.049742910036      -0.126006299776
142 1       6.419330000000       8.289430000000      20.653630000000      -0.035810369304      -0.247643429922      -0.126450276602
143 1       2.214170000000       6.281220000000      22.897510000000      -0.004230073405      -0.037738726481       0.031383099310
144 1       6.233150000000       1.972110000000      18.578830000000      -0.008361857698       0.129616992292      -0.018654802957
145 1       4.214120000000       4.082840000000      18.745980000000       0.161449383671       0.228680563000      -0.311420898590
146 1       4.374070000000       4.391840000000      22.568080000000      -0.089074295704      -0.000514898796       0.034468739824
147 1       8.219620000000       2.216010000000      24.833170000000       0.194658952423      -0.062080306401      -0.051098902906
148 1       0.067690000000       6.085970000000      16.657370000000       0.067859360043      -0.082850314747       0.169332211939
149 1       8.239950000000       0.148650000000      22.719850000000      -0.120854480374      -0.030965610972       0.072068923430
150 1       0.061070000000       8.249850000000      18.742980000000       0.003945453683      -0.196434768957      -0.179029587424
151 1       4.316040000000       6.282970000000      20.751650000000       0.058452380242      -0.238930672059       0.086269085482
152 1       4.207570000000       2.177430000000      20.630010000000      -0.125313062877       0.229689903994      -0.022943241727
153 1       6.353140000000       2.212970000000      22.842380000000      -0.090670571893      -0.001266920844       0.033313230635
154 1       2.133990000000       6.254420000000      18.689480000000       0.047491245777       0.065764690812       0.027619614394
155 1       2.192190000000       4.069530000000      20.756660000000       0.125837354645      -0.104113687981       0.099832714056
156 1       6.284250000000       4.237820000000      20.745380000000      -0.275473490553       0.071316388742       0.148129565016
157 1       6.184530000000       0.010620000000      16.646650000000       0.073617504917      -0.030356145692       0.006422405529
158 1       2.045170000000       0.016240000000       0.021750000000      -0.055128669966      -0.047020531425      -0.027073656537
159 1       6.517690000000       6.368930000000      18.816100000000       0.071050124422      -0.011235589145      -0.022000418483
160 1       2.047900000000       2.097620000000      22.713810000000       0.192895496670       0.124992445138       0.142499712772
