ITEM: TIMESTEP
0
ITEM: NUMBER OF ATOMS
160
ITEM: BOX BOUNDS pp pp pp
0.0000000000000000e+00 8.2896671649999991e+00
0.0000000000000000e+00 8.2896671649999991e+00
0.0000000000000000e+00 2.4869001493999999e+01
ITEM: ATOMS id type c_pe_atom
1 2      -9.301581763539
2 2      -8.253839609267
3 2      -8.325887119695
4 2      -9.191796744318
5 2      -9.258369656511
6 2      -9.320840012550
7 2      -8.401182161694
8 2      -8.636388776726
9 2      -8.397810684010
10 2      -8.276304292326
11 2      -8.494091900053
12 2      -9.293460628852
13 2      -9.307114933091
14 2      -9.223895280140
15 2      -8.316931146395
16 2      -8.762570003597
17 2      -8.418911323382
18 2      -9.250264682953
19 2      -8.405848677079
20 2      -8.709976120724
21 2      -4.734573163637
22 2      -3.966952858584
23 2      -4.780346166806
24 2      -3.211761790535
25 2      -3.906205082801
26 2      -5.508523743230
27 2      -5.503061672278
28 2      -3.115837917659
29 2      -5.619688768263
30 2      -4.442031292542
31 2      -4.023999366616
32 2      -4.080129568652
33 2      -3.617238597344
34 2      -3.542699212035
35 2      -3.885271186469
36 2      -3.381826488977
37 2      -4.923463130549
38 2      -3.567632426570
39 2      -5.491190333225
40 2      -5.530767146758
41 2      -4.536571180361
42 2      -4.892159573170
43 2      -4.181373598230
44 2      -3.762541531646
45 2      -3.517449015059
46 2      -3.497244955154
47 2      -3.738371241267
48 2      -4.837641437811
49 2      -3.766853214676
50 2      -5.335711401172
51 2      -5.489678782491
52 2      -3.729235321916
53 2      -3.348210502760
54 2      -3.766503004773
55 2      -3.770497455235
56 2      -4.482699584741
57 2      -3.942776630055
58 2      -4.061243950475
59 2      -3.803374195661
60 2      -5.531120004302
61 2      -9.324123453070
62 2      -9.112720708959
63 2      -9.079929953780
64 2      -9.196178542002
65 1      -7.692251704826
66 1      -7.894145309413
67 1      -4.110399677152
68 1      -3.795933836387
69 1      -3.298924572125
70 1      -3.706874041991
71 1      -7.674131692300
72 1      -3.618795578321
73 1      -7.637988746734
74 1      -3.568533781692
75 1      -3.349479314172
76 1      -8.350996475686
77 1      -4.555979285435
78 1      -4.280985870361
79 1      -3.340310384417
80 1      -8.885959345967
81 1      -7.606922690870
82 1      -7.641440695146
83 1      -7.917765825081
84 1      -8.194239342057
85 1      -4.072623978140
86 1      -3.904526364264
87 1      -7.621740069493
88 1      -8.216738879352
89 1      -8.241696666081
90 1      -7.765798111596
91 1      -3.623377846369
92 1      -7.299522228828
93 1      -4.255395656282
94 1      -3.523491436294
95 1      -9.000444315148
96 1      -3.604280402934
97 1      -3.665288243291
98 1      -8.339011334686
99 1      -8.301568040516
100 1      -4.075095890940
101 1      -7.379216942839
102 1      -3.821217710810
103 1      -4.248280678346
104 1      -7.829708614780
105 1      -3.654589451298
106 1      -7.659535950961
107 1      -3.599428698450
108 1      -3.715280636747
109 1      -8.174782925560
110 1      -7.532647419206
111 1      -3.638879870181
112 1      -3.331267504044
113 1      -4.270846022107
114 1      -3.571352635977
115 1      -7.861314130313
116 1      -7.710306090017
117 1      -8.041577179521
118 1      -7.685057012193
119 1      -4.212556578887
120 1      -4.501688424740
121 1      -7.889581507768
122 1      -8.325610679677
123 1      -3.879556634564
124 1      -3.272210108462
125 1      -8.218413247195
126 1      -3.796937584955
127 1      -8.021906142845
128 1      -8.124587735235
129 1      -4.341184090508
130 1      -7.791723499401
131 1      -4.341415396239
132 1      -7.781735625406
133 1      -8.045561276444
134 1      -8.969792782072
135 1      -7.366602484520
136 1      -4.581945442358
137 1      -3.553654973357
138 1      -7.386873863379
139 1      -7.876690421868
140 1      -3.592031540633
141 1      -3.962006556235
142 1      -7.838081839118
143 1      -3.733260182664
144 1      -7.601369400831
145 1      -3.147138068174
146 1      -4.253470251597
147 1      -7.752887810485
148 1      -3.675828181574
149 1      -3.697709548335
150 1      -8.127217723672
151 1      -7.760727549156
152 1      -8.374185100853
153 1      -7.545032709047
154 1      -4.287880925200
155 1      -3.453332292078
156 1      -7.445759410598
157 1      -7.522098835936
158 1      -4.484542658784
159 1      -3.766930540037
160 1      -3.751176847466
