ITEM: TIMESTEP
0
ITEM: NUMBER OF ATOMS
80
ITEM: BOX BOUNDS pp pp pp
0.0000000000000000e+00 9.4862321109999996e+00
0.0000000000000000e+00 9.4862321109999996e+00
0.0000000000000000e+00 9.4862321109999996e+00
ITEM: ATOMS id type v_vir_xx v_vir_yy v_vir_zz v_vir_xy v_vir_xz v_vir_yz
1 2      -4.913715063383      -4.913782181310      -4.913790700853      -0.863150401057       0.863123613508       0.863148758074
2 2      -4.088968444724      -3.851127946250      -4.134665456924      -0.000007596139       0.601910501350       0.000004549129
3 2      -4.134493637226      -4.088898400384      -3.850911172929       0.601931292617      -0.000019174426      -0.000013328946
4 2      -4.134561415894      -4.088995705806      -3.851043387357      -0.601920974684       0.000015173085      -0.000014665433
5 2      -3.850911172929      -4.134493637226      -4.088898400384      -0.000019174426      -0.000013328946       0.601931292617
6 2      -3.850936633617      -4.134608819712      -4.088998663966      -0.000000543547      -0.000006258314      -0.601902461839
7 2      -4.088995705806      -3.851043387357      -4.134561415894      -0.000014665433      -0.601920974684       0.000015173085
8 2      -4.913790700853      -4.913715063383      -4.913782181310       0.863123613508       0.863148758074      -0.863150401057
9 2      -4.913767616276      -4.913767616276      -4.913767616276      -0.863150621381      -0.863150621381      -0.863150621381
10 2      -4.913782181310      -4.913790700853      -4.913715063383       0.863148758074      -0.863150401057       0.863123613508
11 2      -4.088998663966      -3.850936633617      -4.134608819712      -0.000006258314      -0.601902461839      -0.000000543547
12 2      -3.851043387357      -4.134561415894      -4.088995705806       0.000015173085      -0.000014665433      -0.601920974684
13 2      -3.851127946250      -4.134665456924      -4.088968444724       0.000004549129      -0.000007596139       0.601910501350
14 2      -4.134608819712      -4.088998663966      -3.850936633617      -0.601902461839      -0.000000543547      -0.000006258314
15 2      -4.134665456924      -4.088968444724      -3.851127946250       0.601910501350       0.000004549129      -0.000007596139
16 2      -4.088898400384      -3.850911172929      -4.134493637226      -0.000013328946       0.601931292617      -0.000019174426
17 2      -4.913805262550      -4.913738138644      -4.913729622911      -0.863121755093       0.863148537168       0.863123399042
18 2      -4.088960259973      -3.851022643937      -4.134526270742       0.000011550769       0.601918632008       0.000004523917
19 2      -4.134697510921      -4.089054971278      -3.851116335608       0.601909518663       0.000010111480       0.000009377524
20 2      -4.134630305793      -4.088932992946      -3.851107201540      -0.601908161585      -0.000014112254       0.000008041986
21 2      -3.851116335608      -4.134697510921      -4.089054971278       0.000010111480       0.000009377524       0.601909518663
22 2      -3.851090875767      -4.134582332356      -4.088954717232      -0.000000520216       0.000012884506      -0.601938344365
23 2      -4.088932992946      -3.851107201540      -4.134630305793       0.000008041986      -0.601908161585      -0.000014112254
24 2      -4.913729622911      -4.913805262550      -4.913738138644       0.863148537168       0.863123399042      -0.863121755093
25 2      -4.913752717705      -4.913752717705      -4.913752717705      -0.863121530833      -0.863121530833      -0.863121530833
26 2      -4.913738138644      -4.913729622911      -4.913805262550       0.863123399042      -0.863121755093       0.863148537168
27 2      -4.088954717232      -3.851090875767      -4.134582332356       0.000012884506      -0.601938344365      -0.000000520216
28 2      -3.851107201540      -4.134630305793      -4.088932992946      -0.000014112254       0.000008041986      -0.601908161585
29 2      -3.851022643937      -4.134526270742      -4.088960259973       0.000004523917       0.000011550769       0.601918632008
30 2      -4.134582332356      -4.088954717232      -3.851090875767      -0.601938344365      -0.000000520216       0.000012884506
31 2      -4.134526270742      -4.088960259973      -3.851022643937       0.601918632008       0.000004523917       0.000011550769
32 2      -4.089054971278      -3.851116335608      -4.134697510921       0.000009377524       0.601909518663       0.000010111480
33 1       3.471922902590       3.375688868177       2.958342061550      -0.342193510894       0.682199275682       0.299133716770
34 1       3.471909627081       3.375651705477       2.958288485132       0.342209009881      -0.682218205741       0.299122027465
35 1       3.375697599574       2.958313498963       3.471877074947      -0.299133417235      -0.342184005689      -0.682194337838
36 1       3.375716232433       2.958309765491       3.471890151197       0.299150702533      -0.342183421424       0.682193991582
37 1       3.375679375253       2.958257873832       3.471890777983      -0.299131479459       0.342200440280       0.682211741260
38 1       3.375695174618       2.958311354155       3.471896301609       0.299134267349       0.342193232102      -0.682182439011
39 1       3.471877074947       3.375697599574       2.958313498963      -0.342184005689      -0.682194337838      -0.299133417235
40 1       3.471890777983       3.375679375253       2.958257873832       0.342200440280       0.682211741260      -0.299131479459
41 1       2.958311354155       3.471896301609       3.375695174618      -0.682182439011       0.299134267349       0.342193232102
42 1       2.958299479472       3.471877403873       3.375652400461       0.682198884112      -0.299117975220       0.342210904300
43 1       2.958313498963       3.471877074947       3.375697599574      -0.682194337838      -0.299133417235      -0.342184005689
44 1       2.958342061550       3.471922902590       3.375688868177       0.682199275682       0.299133716770      -0.342193510894
45 1       2.958295853572       3.471898237297       3.375692399678      -0.682208908284      -0.299144160271      -0.342202033629
46 1       2.958257873832       3.471890777983       3.375679375253       0.682211741260      -0.299131479459       0.342200440280
47 1       2.958288485132       3.471909627081       3.375651705477      -0.682218205741       0.299122027465       0.342209009881
48 1       2.958309765491       3.471890151197       3.375716232433       0.682193991582       0.299150702533      -0.342183421424
49 1       3.471877403873       3.375652400461       2.958299479472       0.342210904300       0.682198884112      -0.299117975220
50 1       3.471898237297       3.375692399678       2.958295853572      -0.342202033629      -0.682208908284      -0.299144160271
51 1       3.375652400461       2.958299479472       3.471877403873      -0.299117975220       0.342210904300       0.682198884112
52 1       3.375651705477       2.958288485132       3.471909627081       0.299122027465       0.342209009881      -0.682218205741
53 1       3.375688868177       2.958342061550       3.471922902590       0.299133716770      -0.342193510894       0.682199275682
54 1       3.375692399678       2.958295853572       3.471898237297      -0.299144160271      -0.342202033629      -0.682208908284
55 1       3.471890151197       3.375716232433       2.958309765491      -0.342183421424       0.682193991582       0.299150702533
56 1       3.471896301609       3.375695174618       2.958311354155       0.342193232102      -0.682182439011       0.299134267349
57 1       3.471914363252       3.375702417631       2.958279044028      -0.342208563378       0.682201849986       0.299140575275
58 1       3.471899912436       3.375719608500       2.958347347406       0.342194055896      -0.682209517387       0.299158610074
59 1       3.375696847592       2.958309846676       3.471923076923      -0.299135166849      -0.342205846415      -0.682188570855
60 1       3.375677166458       2.958326248196       3.471909240972       0.299133981539      -0.342208350740       0.682213994691
61 1       3.375732970519       2.958376111220       3.471935606303      -0.299162958499       0.342192273382       0.682194714953
62 1       3.375718206562       2.958309938509       3.471930818314       0.299144073844       0.342197564070      -0.682198946773
63 1       3.471923076923       3.375696847592       2.958309846676      -0.342205846415      -0.682188570855      -0.299135166849
64 1       3.471935606303       3.375732970519       2.958376111220       0.342192273382       0.682194714953      -0.299162958499
65 1       2.958309938509       3.471930818314       3.375718206562      -0.682198946773       0.299144073844       0.342197564070
66 1       2.958323667879       3.471932876586       3.375719949974       0.682203766648      -0.299146565844       0.342190239260
67 1       2.958309846676       3.471923076923       3.375696847592      -0.682188570855      -0.299135166849      -0.342205846415
68 1       2.958279044028       3.471914363252       3.375702417631       0.682201849986       0.299140575275      -0.342208563378
69 1       2.958337934931       3.471938282999       3.375697847276      -0.682217286269      -0.299146230206      -0.342201965773
70 1       2.958376111220       3.471935606303       3.375732970519       0.682194714953      -0.299162958499       0.342192273382
71 1       2.958347347406       3.471899912436       3.375719608500      -0.682209517387       0.299158610074       0.342194055896
72 1       2.958326248196       3.471909240972       3.375677166458       0.682213994691       0.299133981539      -0.342208350740
73 1       3.471932876586       3.375719949974       2.958323667879       0.342190239260       0.682203766648      -0.299146565844
74 1       3.471938282999       3.375697847276       2.958337934931      -0.342201965773      -0.682217286269      -0.299146230206
75 1       3.375719949974       2.958323667879       3.471932876586      -0.299146565844       0.342190239260       0.682203766648
76 1       3.375719608500       2.958347347406       3.471899912436       0.299158610074       0.342194055896      -0.682209517387
77 1       3.375702417631       2.958279044028       3.471914363252       0.299140575275      -0.342208563378       0.682201849986
78 1       3.375697847276       2.958337934931       3.471938282999      -0.299146230206      -0.342201965773      -0.682217286269
79 1       3.471909240972       3.375677166458       2.958326248196      -0.342208350740       0.682213994691       0.299133981539
80 1       3.471930818314       3.375718206562       2.958309938509       0.342197564070      -0.682198946773       0.299144073844
