ITEM: TIMESTEP
0
ITEM: NUMBER OF ATOMS
30
ITEM: BOX BOUNDS xy xz yz pp pp pp
-2.5673038099999999e+00 5.1346076209999998e+00 -2.5673038099999999e+00
0.0000000000000000e+00 4.4467010619999998e+00 0.0000000000000000e+00
0.0000000000000000e+00 1.3822731296000001e+01 0.0000000000000000e+00
ITEM: ATOMS id type v_vir_xx v_vir_yy v_vir_zz v_vir_xy v_vir_xz v_vir_yz
1 2      -2.605484326490      -2.605408019836      -1.028688790398      -0.000003383337       0.000002399825       0.000024884101
2 2      -2.605514619146      -2.605514095308      -1.028891734724       0.000027209737      -0.000004920594      -0.000030168168
3 2      -2.605451274998      -2.605450546876      -1.028748492418       0.000003394924       0.000009830769       0.000023523407
4 2      -2.605431684496      -2.605428715687      -1.028638536140       0.000026477446       0.000004310870       0.000013016488
5 2      -2.605557284288      -2.605552649394      -1.028864710738       0.000015162926       0.000010455867      -0.000032474291
6 2      -2.605479054906      -2.605424549814      -1.028627249461      -0.000010908386       0.000008819557       0.000007983968
7 2      -2.605510718182      -2.605560050158      -1.028867909212       0.000037717814       0.000007036362      -0.000035119421
8 2      -2.605532885427      -2.605464133385      -1.028743685922      -0.000043597639       0.000004192288       0.000012113973
9 2      -2.605441880762      -2.605442946868      -1.028766415075       0.000005873153      -0.000004192095       0.000001003194
10 2      -2.605504536928      -2.605458824569      -1.028752292012      -0.000010770881      -0.000005721974       0.000006816458
11 2      -2.605495513771      -2.605423259666      -1.028714003326      -0.000017717171      -0.000008450864       0.000015937811
12 2      -2.605491015772      -2.605522373114      -1.028881604937       0.000021582151      -0.000009078135      -0.000030126955
13 1       2.210389451363       3.014006671474       1.527608730437      -0.695959129650       0.744672183945       0.429939486542
14 1       3.415785187186       1.808521356832       1.527598622601      -0.000009312784       0.000003658888      -0.859859208454
15 1       2.210369173342       3.013988154965       1.527606381790       0.695946086407      -0.744660198564       0.429942010379
16 1       2.210418620157       3.013932791946       1.527588223567      -0.695994808122       0.744667035621       0.429907151765
17 1       2.210369748022       3.013995273716       1.527583008379       0.695928091193      -0.744658030940       0.429955174164
18 1       3.415803647589       1.808544414559       1.527594939465       0.000013159671       0.000001234192      -0.859876071804
19 1       2.210370388858       3.014017857220       1.527602193156      -0.695942261840       0.744668139192       0.429931671345
20 1       3.415885451715       1.808584801530       1.527592342516       0.000005090864      -0.000008503564      -0.859863777875
21 1       2.210370571298       3.013959575257       1.527601752551       0.695943574625      -0.744658541851       0.429905664697
22 1       2.210329993326       3.014040423950       1.527603288181      -0.695951345919       0.744642175358       0.429937454584
23 1       2.210390221759       3.013941340251       1.527586424008       0.695972828109      -0.744654615312       0.429904864281
24 1       3.415821775592       1.808575820623       1.527589128756      -0.000016816905       0.000000214394      -0.859856531511
25 1       2.210357724753       3.013918989920       1.527573819164      -0.695972837996       0.744663949786       0.429906856781
26 1       3.415783131448       1.808547741451       1.527586997063       0.000010503650      -0.000001042823      -0.859864017265
27 1       2.210360545137       3.013994605731       1.527580335064       0.695955577008      -0.744674496741       0.429944238128
28 1       2.210354491438       3.013984524050       1.527587402869      -0.695930680825       0.744670588712       0.429949529034
29 1       2.210346790899       3.013992023355       1.527611580406       0.695955187392      -0.744659905156       0.429944252726
30 1       3.415799057661       1.808523261810       1.527600947004      -0.000003528288      -0.000001881290      -0.859873284334
