ITEM: TIMESTEP
0
ITEM: NUMBER OF ATOMS
30
ITEM: BOX BOUNDS xy xz yz pp pp pp
-2.5673038099999999e+00 5.1346076209999998e+00 -2.5673038099999999e+00
0.0000000000000000e+00 4.4467010619999998e+00 0.0000000000000000e+00
0.0000000000000000e+00 1.3822731296000001e+01 0.0000000000000000e+00
ITEM: ATOMS id type x y z fx fy fz
1 2       0.000000000000       0.000000000000       1.992400000000      -0.000010962995      -0.000035484043      -0.074176069424
2 2      -0.000000000000       2.964470000000       0.311390000000      -0.000001600674      -0.000069029072       0.074147232242
3 2       2.567300000000       1.482230000000       2.615170000000       0.000045808469       0.000047991054       0.074166024051
4 2      -0.000000000000       2.964470000000       4.296190000000      -0.000019367857      -0.000036611962      -0.074154214512
5 2       2.567300000000       1.482230000000       6.599970000000       0.000053575251       0.000066922727      -0.074074771828
6 2       0.000000000000       0.000000000000       4.918970000000      -0.000006794820       0.000016229289       0.074136884341
7 2      -0.000000000000       2.964470000000       7.222760000000       0.000002129511      -0.000083067686       0.074159669133
8 2       0.000000000000       0.000000000000       8.903760000000      -0.000001793535      -0.000015760840      -0.074108075547
9 2      -0.000000000000       2.964470000000      11.207560000000       0.000002761853      -0.000036410085      -0.074180836303
10 2       2.567300000000       1.482230000000       9.526540000000       0.000064685387       0.000051708347       0.074161790234
11 2       0.000000000000       0.000000000000      11.830330000000      -0.000005540357       0.000017056376       0.074143907686
12 2       2.567300000000       1.482230000000      13.511340000000       0.000055703512       0.000067059259      -0.074150474080
13 1      -0.777910000000       1.347380000000       3.455680000000       0.032641048056      -0.056549094393       0.000032189866
14 1       1.555820000000       0.000000000000       3.455680000000      -0.065316066821      -0.000015306464       0.000056829641
15 1       1.789390000000       3.099320000000       3.455680000000       0.032685050834       0.056552734979       0.000025851687
16 1       3.345210000000       0.134850000000       1.151890000000      -0.032575163343       0.056598334600       0.000066324339
17 1       3.345220000000       2.829610000000       1.151890000000      -0.032736199096      -0.056533884653       0.000074357592
18 1       1.011490000000       1.482230000000       1.151890000000       0.065258424453       0.000029814317       0.000028524373
19 1       1.789400000000       2.829610000000       8.063260000000       0.032598885536      -0.056548584392       0.000006865789
20 1       4.123120000000       1.482230000000       8.063260000000      -0.065243304891       0.000018376457       0.000002323107
21 1       1.789400000000       0.134850000000       8.063260000000       0.032570435813       0.056611222986       0.000049054201
22 1       0.777910000000       1.617090000000       5.759480000000      -0.032691100103       0.056524599365      -0.000086396330
23 1       0.777910000000       4.311850000000       5.759480000000      -0.032620404399      -0.056608081412      -0.000104657915
24 1      -1.555820000000       2.964470000000       5.759480000000       0.065302802175       0.000007020126      -0.000089839605
25 1      -0.777910000000       4.311850000000      12.670840000000       0.032634476055      -0.056597140364      -0.000057985397
26 1       1.555820000000       2.964470000000      12.670840000000      -0.065315123491      -0.000010759423      -0.000024530168
27 1      -0.777910000000       1.617090000000      12.670840000000       0.032672203731       0.056533345798      -0.000029093661
28 1      -1.789390000000       3.099320000000      10.367050000000      -0.032683889799       0.056562120084      -0.000009780602
29 1       0.777910000000       1.347380000000      10.367050000000      -0.032645214517      -0.056550319690      -0.000013186221
30 1       3.578790000000       0.000000000000      10.367050000000       0.065284536060      -0.000015001287       0.000002083312
