ITEM: TIMESTEP
0
ITEM: NUMBER OF ATOMS
30
ITEM: BOX BOUNDS xy xz yz pp pp pp
-2.4964117920000000e+00 4.9928235839999999e+00 -2.4964117920000000e+00
0.0000000000000000e+00 4.3239124720000000e+00 0.0000000000000000e+00
0.0000000000000000e+00 1.3441038518999999e+01 0.0000000000000000e+00
ITEM: ATOMS id type c_pe_atom
1 2      -2.670277421226
2 2      -2.670034947827
3 2      -2.670316278556
4 2      -2.670329433334
5 2      -2.670094007987
6 2      -2.670281922341
7 2      -2.670077221540
8 2      -2.670251176066
9 2      -2.670294018137
10 2      -2.670351232973
11 2      -2.670257209282
12 2      -2.670073851414
13 1      -8.100020273802
14 1      -8.099931954818
15 1      -8.100061985774
16 1      -8.100093091086
17 1      -8.100077145874
18 1      -8.100131721520
19 1      -8.100063879761
20 1      -8.100097513949
21 1      -8.100074188499
22 1      -8.100088586942
23 1      -8.100112119622
24 1      -8.100079015066
25 1      -8.100073242921
26 1      -8.100140021693
27 1      -8.100120509846
28 1      -8.100019725746
29 1      -8.100008573029
30 1      -8.100003359925
