ITEM: TIMESTEP
0
ITEM: NUMBER OF ATOMS
30
ITEM: BOX BOUNDS xy xz yz pp pp pp
-2.4964117920000000e+00 4.9928235839999999e+00 -2.4964117920000000e+00
0.0000000000000000e+00 4.3239124720000000e+00 0.0000000000000000e+00
0.0000000000000000e+00 1.3441038518999999e+01 0.0000000000000000e+00
ITEM: ATOMS id type x y z fx fy fz
1 2       0.000000000000       0.000000000000       1.937380000000      -0.000013192614      -0.000019635402      -0.015095779093
2 2      -0.000000000000       2.882610000000       0.302800000000      -0.000004007309      -0.000076209955       0.015061169163
3 2       2.496410000000       1.441300000000       2.542960000000       0.000010436535       0.000105123449       0.015114774451
4 2      -0.000000000000       2.882610000000       4.177560000000      -0.000028978137      -0.000066460831      -0.015113174993
5 2       2.496410000000       1.441300000000       6.417720000000       0.000047897703       0.000083510269      -0.015035045261
6 2       0.000000000000       0.000000000000       4.783140000000      -0.000007499691       0.000024216859       0.015107380719
7 2      -0.000000000000       2.882610000000       7.023320000000      -0.000013549543      -0.000081797185       0.015025230480
8 2       0.000000000000       0.000000000000       8.657900000000       0.000031040441      -0.000030610939      -0.015118087551
9 2      -0.000000000000       2.882610000000      10.898080000000       0.000024432318      -0.000050242190      -0.015134933920
10 2       2.496410000000       1.441300000000       9.263480000000       0.000061090611       0.000091040062       0.015111025137
11 2       0.000000000000       0.000000000000      11.503660000000      -0.000033235985       0.000005862946       0.015123190795
12 2       2.496410000000       1.441300000000      13.138240000000       0.000010521937       0.000102408688      -0.015049890874
13 1       4.236390000000       1.310170000000       3.360260000000       0.011956525401      -0.020499241895       0.000039430796
14 1       1.512860000000       0.000000000000       3.360260000000      -0.023811421776      -0.000014106081       0.000023655245
15 1       1.739980000000       3.013740000000       3.360260000000       0.011921802616       0.020522731884      -0.000039163527
16 1       3.252840000000       0.131130000000       1.120080000000      -0.011804205108       0.020655256009       0.000126642517
17 1       3.252840000000       2.751480000000       1.120080000000      -0.011945663539      -0.020613444526       0.000118356875
18 1       0.983560000000       1.441300000000       1.120080000000       0.023693862927       0.000002427270       0.000100689418
19 1       1.739980000000       2.751480000000       7.840600000000       0.012019614072      -0.020625336195       0.000150541587
20 1       4.009270000000       1.441300000000       7.840600000000      -0.023783653248       0.000024646217       0.000085917704
21 1       1.739990000000       0.131130000000       7.840600000000       0.011718437179       0.020659424931       0.000169059951
22 1       0.756430000000       1.572440000000       5.600440000000      -0.011995947236       0.020478746593      -0.000160935435
23 1       0.756430000000       4.192780000000       5.600440000000      -0.011862209620      -0.020607754378      -0.000124060724
24 1      -1.512860000000       2.882610000000       5.600440000000       0.023816395610       0.000027156517      -0.000098565374
25 1      -0.756430000000       4.192780000000      12.320960000000       0.011829259381      -0.020603754291      -0.000139820344
26 1       1.512850000000       2.882610000000      12.320960000000      -0.023685738984       0.000028074529      -0.000117361014
27 1      -0.756430000000       1.572440000000      12.320960000000       0.011951668296       0.020482979536      -0.000139362275
28 1      -1.739980000000       3.013740000000      10.080780000000      -0.011926028461       0.020514516919      -0.000036971728
29 1       0.756430000000       1.310170000000      10.080780000000      -0.011882296577      -0.020513851668       0.000025050867
30 1       3.479970000000       0.000000000000      10.080780000000       0.023704642801      -0.000005677143       0.000021036409
