ITEM: TIMESTEP
0
ITEM: NUMBER OF ATOMS
30
ITEM: BOX BOUNDS xy xz yz pp pp pp
-2.4964117920000000e+00 4.9928235839999999e+00 -2.4964117920000000e+00
0.0000000000000000e+00 4.3239124720000000e+00 0.0000000000000000e+00
0.0000000000000000e+00 1.3441038518999999e+01 0.0000000000000000e+00
ITEM: ATOMS id type v_vir_xx v_vir_yy v_vir_zz v_vir_xy v_vir_xz v_vir_yz
1 2      -5.092163115484      -5.092098466595      -4.454397069052      -0.000000880648       0.000000427555       0.000003034539
2 2      -5.092254585171      -5.092246542216      -4.454657302180      -0.000009620578      -0.000001670620      -0.000023994013
3 2      -5.092124739752      -5.092059212156      -4.454413834691      -0.000011010051       0.000009595680       0.000031463261
4 2      -5.092041820895      -5.092090419994      -4.454394427668       0.000041937982       0.000014606697       0.000034941751
5 2      -5.092171855511      -5.092183267960      -4.454612250090      -0.000017383881      -0.000004283585      -0.000020023464
6 2      -5.092117555583      -5.092088740265      -4.454372184104       0.000015524340       0.000007152494       0.000021278209
7 2      -5.092171572943      -5.092230703264      -4.454618297637       0.000020729346      -0.000009362001      -0.000024075170
8 2      -5.092143760855      -5.092111870939      -4.454366918432      -0.000029108940      -0.000018628330       0.000013175691
9 2      -5.092146569604      -5.092132355570      -4.454417840959      -0.000012586541      -0.000022686272       0.000012370631
10 2      -5.092096569368      -5.092043405574      -4.454398071529      -0.000029992137      -0.000014090563       0.000022187429
11 2      -5.092226842409      -5.092110381021      -4.454396169243      -0.000025995054      -0.000019484406      -0.000002753754
12 2      -5.092261764788      -5.092211644864      -4.454664550503      -0.000006557512      -0.000008835487      -0.000035159610
13 1       1.956850331087       2.780262101392       2.077876895013      -0.713048403319       0.368077652333       0.212526085920
14 1       3.191888820156       1.545161641754       2.077870858245      -0.000014726085       0.000002214287      -0.425016111053
15 1       1.956873399764       2.780256682084       2.077862814991       0.713058371330      -0.368082813385       0.212524861641
16 1       1.956904340014       2.780176444756       2.077860616232      -0.713097026430       0.368074087042       0.212488963876
17 1       1.956845708421       2.780244386972       2.077849926740       0.713054977663      -0.368051559708       0.212517015035
18 1       3.191966305715       1.545163873743       2.077871063445       0.000003086211      -0.000013535201      -0.425030605374
19 1       1.956802077430       2.780244985970       2.077845244915      -0.713034851549       0.368061814695       0.212516955983
20 1       3.191936768646       1.545141043987       2.077846561043      -0.000008719388       0.000007525805      -0.425015104506
21 1       1.956885094335       2.780166858842       2.077865074309       0.713123187187      -0.368080381165       0.212476437207
22 1       1.956815601896       2.780287296099       2.077861702364      -0.713049711409       0.368071181304       0.212521522969
23 1       1.956865365665       2.780199291780       2.077838736836       0.713095673987      -0.368079603025       0.212489155619
24 1       3.191880623965       1.545165143211       2.077843813805      -0.000021533737       0.000005898745      -0.425018781841
25 1       1.956906615539       2.780206801276       2.077859832512      -0.713086469305       0.368073207482       0.212491642117
26 1       3.191972759346       1.545198918563       2.077870821760       0.000024726221      -0.000007593350      -0.425035047103
27 1       1.956875173101       2.780302173252       2.077872703964       0.713049951163      -0.368064673215       0.212533160512
28 1       1.956867201094       2.780267154230       2.077869794938      -0.713030228162       0.368078123490       0.212534617863
29 1       1.956902486673       2.780273329909       2.077891956967       0.713060385640      -0.368077932378       0.212530302021
30 1       3.191960115017       1.545196264245       2.077879887652       0.000005722577       0.000010953618      -0.425035609014
