30
Config_type=bulk_alpha_phase Weight=1.0 Lattice="4.992823584 0.000000000 0.000000000 -2.496411792 4.323912472 0.000000000 0.000000000 0.000000000 13.441038519" Energy=-254.76208260 Virial="17.41443 -0.00004 0.00002 -0.00004 17.41431 -0.00001 0.00002 -0.00001 15.45249" pbc="T T T" Properties=species:S:1:pos:R:3:forces:R:3
Ga	      0.00000      0.00000      1.93738        -0.000014     -0.000016     -0.017858
Ga	      0.00000      2.88261      0.30280        -0.000000     -0.000073      0.017805
Ga	      2.49641      1.44130      2.54296         0.000026      0.000103      0.017882
Ga	      0.00000      2.88261      4.17756        -0.000018     -0.000055     -0.017883
Ga	      2.49641      1.44130      6.41772         0.000050      0.000089     -0.017783
Ga	      0.00000      0.00000      4.78314         0.000001      0.000030      0.017875
Ga	      0.00000      2.88261      7.02332        -0.000026     -0.000083      0.017764
Ga	      0.00000      0.00000      8.65790         0.000040     -0.000028     -0.017873
Ga	      0.00000      2.88261     10.89808         0.000028     -0.000038     -0.017889
Ga	      2.49641      1.44130      9.26348         0.000072      0.000088      0.017872
Ga	      0.00000      0.00000     11.50366        -0.000032      0.000004      0.017894
Ga	      2.49641      1.44130     13.13824         0.000015      0.000106     -0.017814
O	      4.23639      1.31017      3.36026        -0.007996      0.013994      0.000050
O	      1.51286      0.00000      3.36026         0.016027     -0.000039      0.000067
O	      1.73998      3.01374      3.36026        -0.008001     -0.013955      0.000008
O	      3.25284      0.13113      1.12008         0.008106     -0.013934      0.000108
O	      3.25284      2.75148      1.12008         0.008052      0.013910      0.000103
O	      0.98356      1.44130      1.12008        -0.016207      0.000046      0.000084
O	      1.73998      2.75148      7.84060        -0.007913      0.013880      0.000117
O	      4.00927      1.44130      7.84060         0.016072      0.000032      0.000055
O	      1.73999      0.13113      7.84060        -0.008219     -0.013871      0.000131
O	      0.75643      1.57244      5.60044         0.007959     -0.014097     -0.000151
O	      0.75643      4.19278      5.60044         0.008111      0.013967     -0.000139
O	     -1.51286      2.88261      5.60044        -0.016106      0.000027     -0.000103
O	     -0.75643      4.19278     12.32096        -0.008159      0.013936     -0.000144
O	      1.51285      2.88261     12.32096         0.016222      0.000069     -0.000126
O	     -0.75643      1.57244     12.32096        -0.007972     -0.014092     -0.000135
O	     -1.73998      3.01374     10.08078         0.007994     -0.013958     -0.000006
O	      0.75643      1.31017     10.08078         0.008013      0.013978      0.000036
O	      3.47997      0.00000     10.08078        -0.016126     -0.000024      0.000050
