ITEM: TIMESTEP
0
ITEM: NUMBER OF ATOMS
30
ITEM: BOX BOUNDS xy xz yz pp pp pp
-2.5521126629999999e+00 5.1042253270000000e+00 -2.5521126629999999e+00
0.0000000000000000e+00 4.4203892209999998e+00 0.0000000000000000e+00
0.0000000000000000e+00 1.3740939987000001e+01 0.0000000000000000e+00
ITEM: ATOMS id type c_pe_atom
1 2      -4.806085264185
2 2      -4.806075136928
3 2      -4.806092618833
4 2      -4.806092864527
5 2      -4.806081706501
6 2      -4.806080080214
7 2      -4.806075846470
8 2      -4.806084569880
9 2      -4.806094602898
10 2      -4.806091220509
11 2      -4.806081812326
12 2      -4.806080299897
13 1     -10.962544880671
14 1     -10.962552445709
15 1     -10.962547751839
16 1     -10.962547767459
17 1     -10.962537029112
18 1     -10.962544385143
19 1     -10.962541631071
20 1     -10.962538150269
21 1     -10.962549379363
22 1     -10.962545707869
23 1     -10.962551089079
24 1     -10.962541613674
25 1     -10.962553286345
26 1     -10.962546251655
27 1     -10.962540566335
28 1     -10.962546172622
29 1     -10.962548939427
30 1     -10.962551638494
