ITEM: TIMESTEP
0
ITEM: NUMBER OF ATOMS
160
ITEM: BOX BOUNDS pp pp pp
0.0000000000000000e+00 8.4295796900000006e+00
0.0000000000000000e+00 8.4295796900000006e+00
0.0000000000000000e+00 2.5288739070999998e+01
ITEM: ATOMS id type c_pe_atom
1 2      -4.712073063212
2 2      -4.533038642663
3 2      -4.529064104614
4 2      -4.676544730697
5 2      -4.664757542044
6 2      -4.730637469290
7 2      -4.583965430962
8 2      -4.531888048442
9 2      -4.558751196630
10 2      -4.531211187609
11 2      -4.516028054115
12 2      -4.664359301001
13 2      -4.714188878046
14 2      -4.654943152487
15 2      -4.526957639959
16 2      -4.545856878802
17 2      -4.598841873464
18 2      -4.721902322042
19 2      -4.583375083737
20 2      -4.545045851560
21 2      -5.055443101297
22 2      -5.001885287533
23 2      -5.189138308174
24 2      -4.856288845257
25 2      -4.996844464373
26 2      -5.293477958814
27 2      -5.268286611094
28 2      -4.820269840693
29 2      -5.254088097119
30 2      -5.119210757387
31 2      -4.994343635678
32 2      -4.982207593647
33 2      -4.954371660340
34 2      -4.913559378411
35 2      -4.953968704413
36 2      -4.885933840865
37 2      -5.124905244509
38 2      -4.932156605263
39 2      -5.257876827881
40 2      -5.272711587559
41 2      -4.990513012397
42 2      -5.080014283118
43 2      -5.000917036895
44 2      -4.951559987450
45 2      -4.920356166271
46 2      -4.899267316770
47 2      -4.971430521530
48 2      -5.126961092996
49 2      -4.969230326812
50 2      -5.276331265120
51 2      -5.292183436077
52 2      -4.957096403137
53 2      -4.876248262262
54 2      -4.959941694817
55 2      -4.953192744558
56 2      -4.944006090215
57 2      -4.999351664431
58 2      -4.990681437559
59 2      -4.949174602760
60 2      -5.262498845265
61 2      -4.905434452607
62 2      -4.861872920047
63 2      -4.865688736681
64 2      -4.882079696268
65 1     -10.950890689145
66 1     -11.009342635908
67 1     -10.917823653393
68 1     -10.951914774891
69 1     -10.928063830212
70 1     -10.793728437837
71 1     -10.933515692576
72 1     -10.614736216436
73 1     -10.890530343039
74 1     -10.605721201915
75 1     -10.896095557505
76 1     -10.871955602981
77 1     -11.090471953536
78 1     -10.900071037369
79 1     -10.903273368422
80 1     -10.832400676422
81 1     -10.883560071282
82 1     -10.975544490643
83 1     -10.873230667542
84 1     -10.912210560526
85 1     -11.118625511102
86 1     -10.956318915178
87 1     -10.982033261158
88 1     -10.898756249773
89 1     -10.895117476947
90 1     -10.948561422841
91 1     -10.614047946175
92 1     -10.988060658516
93 1     -10.898383344326
94 1     -10.959935272243
95 1     -10.831409303180
96 1     -10.800992673427
97 1     -10.800497774114
98 1     -10.795879726479
99 1     -10.890040012477
100 1     -10.897314885467
101 1     -10.973641859565
102 1     -10.604800347290
103 1     -10.570337996058
104 1     -10.893272378774
105 1     -10.612204820168
106 1     -10.902575592546
107 1     -10.942430157962
108 1     -10.857379449655
109 1     -10.918776910221
110 1     -11.022284692083
111 1     -10.963676303689
112 1     -10.893553459035
113 1     -11.103973367437
114 1     -10.964607225697
115 1     -10.931210801983
116 1     -10.922035784830
117 1     -10.936118397912
118 1     -10.973188890722
119 1     -10.921264134574
120 1     -11.104317615814
121 1     -10.912815355798
122 1     -10.906031498551
123 1     -10.806642005297
124 1     -10.903161962729
125 1     -10.877599593824
126 1     -10.987456687885
127 1     -10.996220958952
128 1     -10.968498722908
129 1     -10.906010605537
130 1     -10.923926895843
131 1     -11.087273315714
132 1     -10.993540971690
133 1     -10.923598407162
134 1     -10.833352021207
135 1     -10.977073606129
136 1     -11.073303466847
137 1     -10.804255971816
138 1     -10.964317772620
139 1     -11.004833352393
140 1     -10.807286987936
141 1     -10.942904289621
142 1     -10.955642772417
143 1     -10.822772031714
144 1     -10.958068823086
145 1     -10.908281511357
146 1     -10.566283099926
147 1     -10.980419892180
148 1     -10.829014889029
149 1     -11.015533872853
150 1     -10.905416294216
151 1     -10.930105868867
152 1     -10.859118969296
153 1     -11.019555589810
154 1     -11.097128077639
155 1     -10.858119327124
156 1     -10.871416016064
157 1     -10.973414310311
158 1     -11.090185380901
159 1     -10.615033208470
160 1     -10.835691596533
