ITEM: TIMESTEP
0
ITEM: NUMBER OF ATOMS
160
ITEM: BOX BOUNDS pp pp pp
0.0000000000000000e+00 8.4295796900000006e+00
0.0000000000000000e+00 8.4295796900000006e+00
0.0000000000000000e+00 2.5288739070999998e+01
ITEM: ATOMS id type v_vir_xx v_vir_yy v_vir_zz v_vir_xy v_vir_xz v_vir_yz
1 2      -0.000000000000      -0.000000000000      -0.000000000000      -0.000000000000      -0.000000000000      -0.000000000000
2 2      -0.000000000000      -0.000000000000      -0.000000000000      -0.000000000000      -0.000000000000      -0.000000000000
3 2      -0.000000000000      -0.000000000000      -0.000000000000      -0.000000000000      -0.000000000000      -0.000000000000
4 2      -0.000000000000      -0.000000000000      -0.000000000000      -0.000000000000      -0.000000000000      -0.000000000000
5 2      -0.000000000000      -0.000000000000      -0.000000000000      -0.000000000000      -0.000000000000      -0.000000000000
6 2      -0.000000000000      -0.000000000000      -0.000000000000      -0.000000000000      -0.000000000000      -0.000000000000
7 2      -0.000000000000      -0.000000000000      -0.000000000000      -0.000000000000      -0.000000000000      -0.000000000000
8 2      -0.000000000000      -0.000000000000      -0.000000000000      -0.000000000000      -0.000000000000      -0.000000000000
9 2      -0.000000000000      -0.000000000000      -0.000000000000      -0.000000000000      -0.000000000000      -0.000000000000
10 2      -0.000000000000      -0.000000000000      -0.000000000000      -0.000000000000      -0.000000000000      -0.000000000000
11 2      -0.000000000000      -0.000000000000      -0.000000000000      -0.000000000000      -0.000000000000      -0.000000000000
12 2      -0.000000000000      -0.000000000000      -0.000000000000      -0.000000000000      -0.000000000000      -0.000000000000
13 2      -0.000000000000      -0.000000000000      -0.000000000000      -0.000000000000      -0.000000000000      -0.000000000000
14 2      -0.000000000000      -0.000000000000      -0.000000000000      -0.000000000000      -0.000000000000      -0.000000000000
15 2      -0.000000000000      -0.000000000000      -0.000000000000      -0.000000000000      -0.000000000000      -0.000000000000
16 2      -0.000000000000      -0.000000000000      -0.000000000000      -0.000000000000      -0.000000000000      -0.000000000000
17 2      -0.000000000000      -0.000000000000      -0.000000000000      -0.000000000000      -0.000000000000      -0.000000000000
18 2      -0.000000000000      -0.000000000000      -0.000000000000      -0.000000000000      -0.000000000000      -0.000000000000
19 2      -0.000000000000      -0.000000000000      -0.000000000000      -0.000000000000      -0.000000000000      -0.000000000000
20 2      -0.000000000000      -0.000000000000      -0.000000000000      -0.000000000000      -0.000000000000      -0.000000000000
21 2      -0.000000000000      -0.000000000000      -0.000000000000      -0.000000000000      -0.000000000000      -0.000000000000
22 2      -0.000000000000      -0.000000000000      -0.000000000000      -0.000000000000      -0.000000000000      -0.000000000000
23 2      -0.000000000000      -0.000000000000      -0.000000000000      -0.000000000000      -0.000000000000      -0.000000000000
24 2      -0.000000000000      -0.000000000000      -0.000000000000      -0.000000000000      -0.000000000000      -0.000000000000
25 2      -0.000000000000      -0.000000000000      -0.000000000000      -0.000000000000      -0.000000000000      -0.000000000000
26 2      -0.000000000000      -0.000000000000      -0.000000000000      -0.000000000000      -0.000000000000      -0.000000000000
27 2      -0.000000000000      -0.000000000000      -0.000000000000      -0.000000000000      -0.000000000000      -0.000000000000
28 2      -0.000000000000      -0.000000000000      -0.000000000000      -0.000000000000      -0.000000000000      -0.000000000000
29 2      -0.000000000000      -0.000000000000      -0.000000000000      -0.000000000000      -0.000000000000      -0.000000000000
30 2      -0.000000000000      -0.000000000000      -0.000000000000      -0.000000000000      -0.000000000000      -0.000000000000
31 2      -0.000000000000      -0.000000000000      -0.000000000000      -0.000000000000      -0.000000000000      -0.000000000000
32 2      -0.000000000000      -0.000000000000      -0.000000000000      -0.000000000000      -0.000000000000      -0.000000000000
33 2      -0.000000000000      -0.000000000000      -0.000000000000      -0.000000000000      -0.000000000000      -0.000000000000
34 2      -0.000000000000      -0.000000000000      -0.000000000000      -0.000000000000      -0.000000000000      -0.000000000000
35 2      -0.000000000000      -0.000000000000      -0.000000000000      -0.000000000000      -0.000000000000      -0.000000000000
36 2      -0.000000000000      -0.000000000000      -0.000000000000      -0.000000000000      -0.000000000000      -0.000000000000
37 2      -0.000000000000      -0.000000000000      -0.000000000000      -0.000000000000      -0.000000000000      -0.000000000000
38 2      -0.000000000000      -0.000000000000      -0.000000000000      -0.000000000000      -0.000000000000      -0.000000000000
39 2      -0.000000000000      -0.000000000000      -0.000000000000      -0.000000000000      -0.000000000000      -0.000000000000
40 2      -0.000000000000      -0.000000000000      -0.000000000000      -0.000000000000      -0.000000000000      -0.000000000000
41 2      -0.000000000000      -0.000000000000      -0.000000000000      -0.000000000000      -0.000000000000      -0.000000000000
42 2      -0.000000000000      -0.000000000000      -0.000000000000      -0.000000000000      -0.000000000000      -0.000000000000
43 2      -0.000000000000      -0.000000000000      -0.000000000000      -0.000000000000      -0.000000000000      -0.000000000000
44 2      -0.000000000000      -0.000000000000      -0.000000000000      -0.000000000000      -0.000000000000      -0.000000000000
45 2      -0.000000000000      -0.000000000000      -0.000000000000      -0.000000000000      -0.000000000000      -0.000000000000
46 2      -0.000000000000      -0.000000000000      -0.000000000000      -0.000000000000      -0.000000000000      -0.000000000000
47 2      -0.000000000000      -0.000000000000      -0.000000000000      -0.000000000000      -0.000000000000      -0.000000000000
48 2      -0.000000000000      -0.000000000000      -0.000000000000      -0.000000000000      -0.000000000000      -0.000000000000
49 2      -0.000000000000      -0.000000000000      -0.000000000000      -0.000000000000      -0.000000000000      -0.000000000000
50 2      -0.000000000000      -0.000000000000      -0.000000000000      -0.000000000000      -0.000000000000      -0.000000000000
51 2      -0.000000000000      -0.000000000000      -0.000000000000      -0.000000000000      -0.000000000000      -0.000000000000
52 2      -0.000000000000      -0.000000000000      -0.000000000000      -0.000000000000      -0.000000000000      -0.000000000000
53 2      -0.000000000000      -0.000000000000      -0.000000000000      -0.000000000000      -0.000000000000      -0.000000000000
54 2      -0.000000000000      -0.000000000000      -0.000000000000      -0.000000000000      -0.000000000000      -0.000000000000
55 2      -0.000000000000      -0.000000000000      -0.000000000000      -0.000000000000      -0.000000000000      -0.000000000000
56 2      -0.000000000000      -0.000000000000      -0.000000000000      -0.000000000000      -0.000000000000      -0.000000000000
57 2      -0.000000000000      -0.000000000000      -0.000000000000      -0.000000000000      -0.000000000000      -0.000000000000
58 2      -0.000000000000      -0.000000000000      -0.000000000000      -0.000000000000      -0.000000000000      -0.000000000000
59 2      -0.000000000000      -0.000000000000      -0.000000000000      -0.000000000000      -0.000000000000      -0.000000000000
60 2      -0.000000000000      -0.000000000000      -0.000000000000      -0.000000000000      -0.000000000000      -0.000000000000
61 2      -0.000000000000      -0.000000000000      -0.000000000000      -0.000000000000      -0.000000000000      -0.000000000000
62 2      -0.000000000000      -0.000000000000      -0.000000000000      -0.000000000000      -0.000000000000      -0.000000000000
63 2      -0.000000000000      -0.000000000000      -0.000000000000      -0.000000000000      -0.000000000000      -0.000000000000
64 2      -0.000000000000      -0.000000000000      -0.000000000000      -0.000000000000      -0.000000000000      -0.000000000000
65 1      -0.000000000000      -0.000000000000      -0.000000000000      -0.000000000000      -0.000000000000      -0.000000000000
66 1      -0.000000000000      -0.000000000000      -0.000000000000      -0.000000000000      -0.000000000000      -0.000000000000
67 1      -0.000000000000      -0.000000000000      -0.000000000000      -0.000000000000      -0.000000000000      -0.000000000000
68 1      -0.000000000000      -0.000000000000      -0.000000000000      -0.000000000000      -0.000000000000      -0.000000000000
69 1      -0.000000000000      -0.000000000000      -0.000000000000      -0.000000000000      -0.000000000000      -0.000000000000
70 1      -0.000000000000      -0.000000000000      -0.000000000000      -0.000000000000      -0.000000000000      -0.000000000000
71 1      -0.000000000000      -0.000000000000      -0.000000000000      -0.000000000000      -0.000000000000      -0.000000000000
72 1      -0.000000000000      -0.000000000000      -0.000000000000      -0.000000000000      -0.000000000000      -0.000000000000
73 1      -0.000000000000      -0.000000000000      -0.000000000000      -0.000000000000      -0.000000000000      -0.000000000000
74 1      -0.000000000000      -0.000000000000      -0.000000000000      -0.000000000000      -0.000000000000      -0.000000000000
75 1      -0.000000000000      -0.000000000000      -0.000000000000      -0.000000000000      -0.000000000000      -0.000000000000
76 1      -0.000000000000      -0.000000000000      -0.000000000000      -0.000000000000      -0.000000000000      -0.000000000000
77 1      -0.000000000000      -0.000000000000      -0.000000000000      -0.000000000000      -0.000000000000      -0.000000000000
78 1      -0.000000000000      -0.000000000000      -0.000000000000      -0.000000000000      -0.000000000000      -0.000000000000
79 1      -0.000000000000      -0.000000000000      -0.000000000000      -0.000000000000      -0.000000000000      -0.000000000000
80 1      -0.000000000000      -0.000000000000      -0.000000000000      -0.000000000000      -0.000000000000      -0.000000000000
81 1      -0.000000000000      -0.000000000000      -0.000000000000      -0.000000000000      -0.000000000000      -0.000000000000
82 1      -0.000000000000      -0.000000000000      -0.000000000000      -0.000000000000      -0.000000000000      -0.000000000000
83 1      -0.000000000000      -0.000000000000      -0.000000000000      -0.000000000000      -0.000000000000      -0.000000000000
84 1      -0.000000000000      -0.000000000000      -0.000000000000      -0.000000000000      -0.000000000000      -0.000000000000
85 1      -0.000000000000      -0.000000000000      -0.000000000000      -0.000000000000      -0.000000000000      -0.000000000000
86 1      -0.000000000000      -0.000000000000      -0.000000000000      -0.000000000000      -0.000000000000      -0.000000000000
87 1      -0.000000000000      -0.000000000000      -0.000000000000      -0.000000000000      -0.000000000000      -0.000000000000
88 1      -0.000000000000      -0.000000000000      -0.000000000000      -0.000000000000      -0.000000000000      -0.000000000000
89 1      -0.000000000000      -0.000000000000      -0.000000000000      -0.000000000000      -0.000000000000      -0.000000000000
90 1      -0.000000000000      -0.000000000000      -0.000000000000      -0.000000000000      -0.000000000000      -0.000000000000
91 1      -0.000000000000      -0.000000000000      -0.000000000000      -0.000000000000      -0.000000000000      -0.000000000000
92 1      -0.000000000000      -0.000000000000      -0.000000000000      -0.000000000000      -0.000000000000      -0.000000000000
93 1      -0.000000000000      -0.000000000000      -0.000000000000      -0.000000000000      -0.000000000000      -0.000000000000
94 1      -0.000000000000      -0.000000000000      -0.000000000000      -0.000000000000      -0.000000000000      -0.000000000000
95 1      -0.000000000000      -0.000000000000      -0.000000000000      -0.000000000000      -0.000000000000      -0.000000000000
96 1      -0.000000000000      -0.000000000000      -0.000000000000      -0.000000000000      -0.000000000000      -0.000000000000
97 1      -0.000000000000      -0.000000000000      -0.000000000000      -0.000000000000      -0.000000000000      -0.000000000000
98 1      -0.000000000000      -0.000000000000      -0.000000000000      -0.000000000000      -0.000000000000      -0.000000000000
99 1      -0.000000000000      -0.000000000000      -0.000000000000      -0.000000000000      -0.000000000000      -0.000000000000
100 1      -0.000000000000      -0.000000000000      -0.000000000000      -0.000000000000      -0.000000000000      -0.000000000000
101 1      -0.000000000000      -0.000000000000      -0.000000000000      -0.000000000000      -0.000000000000      -0.000000000000
102 1      -0.000000000000      -0.000000000000      -0.000000000000      -0.000000000000      -0.000000000000      -0.000000000000
103 1      -0.000000000000      -0.000000000000      -0.000000000000      -0.000000000000      -0.000000000000      -0.000000000000
104 1      -0.000000000000      -0.000000000000      -0.000000000000      -0.000000000000      -0.000000000000      -0.000000000000
105 1      -0.000000000000      -0.000000000000      -0.000000000000      -0.000000000000      -0.000000000000      -0.000000000000
106 1      -0.000000000000      -0.000000000000      -0.000000000000      -0.000000000000      -0.000000000000      -0.000000000000
107 1      -0.000000000000      -0.000000000000      -0.000000000000      -0.000000000000      -0.000000000000      -0.000000000000
108 1      -0.000000000000      -0.000000000000      -0.000000000000      -0.000000000000      -0.000000000000      -0.000000000000
109 1      -0.000000000000      -0.000000000000      -0.000000000000      -0.000000000000      -0.000000000000      -0.000000000000
110 1      -0.000000000000      -0.000000000000      -0.000000000000      -0.000000000000      -0.000000000000      -0.000000000000
111 1      -0.000000000000      -0.000000000000      -0.000000000000      -0.000000000000      -0.000000000000      -0.000000000000
112 1      -0.000000000000      -0.000000000000      -0.000000000000      -0.000000000000      -0.000000000000      -0.000000000000
113 1      -0.000000000000      -0.000000000000      -0.000000000000      -0.000000000000      -0.000000000000      -0.000000000000
114 1      -0.000000000000      -0.000000000000      -0.000000000000      -0.000000000000      -0.000000000000      -0.000000000000
115 1      -0.000000000000      -0.000000000000      -0.000000000000      -0.000000000000      -0.000000000000      -0.000000000000
116 1      -0.000000000000      -0.000000000000      -0.000000000000      -0.000000000000      -0.000000000000      -0.000000000000
117 1      -0.000000000000      -0.000000000000      -0.000000000000      -0.000000000000      -0.000000000000      -0.000000000000
118 1      -0.000000000000      -0.000000000000      -0.000000000000      -0.000000000000      -0.000000000000      -0.000000000000
119 1      -0.000000000000      -0.000000000000      -0.000000000000      -0.000000000000      -0.000000000000      -0.000000000000
120 1      -0.000000000000      -0.000000000000      -0.000000000000      -0.000000000000      -0.000000000000      -0.000000000000
121 1      -0.000000000000      -0.000000000000      -0.000000000000      -0.000000000000      -0.000000000000      -0.000000000000
122 1      -0.000000000000      -0.000000000000      -0.000000000000      -0.000000000000      -0.000000000000      -0.000000000000
123 1      -0.000000000000      -0.000000000000      -0.000000000000      -0.000000000000      -0.000000000000      -0.000000000000
124 1      -0.000000000000      -0.000000000000      -0.000000000000      -0.000000000000      -0.000000000000      -0.000000000000
125 1      -0.000000000000      -0.000000000000      -0.000000000000      -0.000000000000      -0.000000000000      -0.000000000000
126 1      -0.000000000000      -0.000000000000      -0.000000000000      -0.000000000000      -0.000000000000      -0.000000000000
127 1      -0.000000000000      -0.000000000000      -0.000000000000      -0.000000000000      -0.000000000000      -0.000000000000
128 1      -0.000000000000      -0.000000000000      -0.000000000000      -0.000000000000      -0.000000000000      -0.000000000000
129 1      -0.000000000000      -0.000000000000      -0.000000000000      -0.000000000000      -0.000000000000      -0.000000000000
130 1      -0.000000000000      -0.000000000000      -0.000000000000      -0.000000000000      -0.000000000000      -0.000000000000
131 1      -0.000000000000      -0.000000000000      -0.000000000000      -0.000000000000      -0.000000000000      -0.000000000000
132 1      -0.000000000000      -0.000000000000      -0.000000000000      -0.000000000000      -0.000000000000      -0.000000000000
133 1      -0.000000000000      -0.000000000000      -0.000000000000      -0.000000000000      -0.000000000000      -0.000000000000
134 1      -0.000000000000      -0.000000000000      -0.000000000000      -0.000000000000      -0.000000000000      -0.000000000000
135 1      -0.000000000000      -0.000000000000      -0.000000000000      -0.000000000000      -0.000000000000      -0.000000000000
136 1      -0.000000000000      -0.000000000000      -0.000000000000      -0.000000000000      -0.000000000000      -0.000000000000
137 1      -0.000000000000      -0.000000000000      -0.000000000000      -0.000000000000      -0.000000000000      -0.000000000000
138 1      -0.000000000000      -0.000000000000      -0.000000000000      -0.000000000000      -0.000000000000      -0.000000000000
139 1      -0.000000000000      -0.000000000000      -0.000000000000      -0.000000000000      -0.000000000000      -0.000000000000
140 1      -0.000000000000      -0.000000000000      -0.000000000000      -0.000000000000      -0.000000000000      -0.000000000000
141 1      -0.000000000000      -0.000000000000      -0.000000000000      -0.000000000000      -0.000000000000      -0.000000000000
142 1      -0.000000000000      -0.000000000000      -0.000000000000      -0.000000000000      -0.000000000000      -0.000000000000
143 1      -0.000000000000      -0.000000000000      -0.000000000000      -0.000000000000      -0.000000000000      -0.000000000000
144 1      -0.000000000000      -0.000000000000      -0.000000000000      -0.000000000000      -0.000000000000      -0.000000000000
145 1      -0.000000000000      -0.000000000000      -0.000000000000      -0.000000000000      -0.000000000000      -0.000000000000
146 1      -0.000000000000      -0.000000000000      -0.000000000000      -0.000000000000      -0.000000000000      -0.000000000000
147 1      -0.000000000000      -0.000000000000      -0.000000000000      -0.000000000000      -0.000000000000      -0.000000000000
148 1      -0.000000000000      -0.000000000000      -0.000000000000      -0.000000000000      -0.000000000000      -0.000000000000
149 1      -0.000000000000      -0.000000000000      -0.000000000000      -0.000000000000      -0.000000000000      -0.000000000000
150 1      -0.000000000000      -0.000000000000      -0.000000000000      -0.000000000000      -0.000000000000      -0.000000000000
151 1      -0.000000000000      -0.000000000000      -0.000000000000      -0.000000000000      -0.000000000000      -0.000000000000
152 1      -0.000000000000      -0.000000000000      -0.000000000000      -0.000000000000      -0.000000000000      -0.000000000000
153 1      -0.000000000000      -0.000000000000      -0.000000000000      -0.000000000000      -0.000000000000      -0.000000000000
154 1      -0.000000000000      -0.000000000000      -0.000000000000      -0.000000000000      -0.000000000000      -0.000000000000
155 1      -0.000000000000      -0.000000000000      -0.000000000000      -0.000000000000      -0.000000000000      -0.000000000000
156 1      -0.000000000000      -0.000000000000      -0.000000000000      -0.000000000000      -0.000000000000      -0.000000000000
157 1      -0.000000000000      -0.000000000000      -0.000000000000      -0.000000000000      -0.000000000000      -0.000000000000
158 1      -0.000000000000      -0.000000000000      -0.000000000000      -0.000000000000      -0.000000000000      -0.000000000000
159 1      -0.000000000000      -0.000000000000      -0.000000000000      -0.000000000000      -0.000000000000      -0.000000000000
160 1      -0.000000000000      -0.000000000000      -0.000000000000      -0.000000000000      -0.000000000000      -0.000000000000
