ITEM: TIMESTEP
0
ITEM: NUMBER OF ATOMS
160
ITEM: BOX BOUNDS pp pp pp
0.0000000000000000e+00 8.4295796900000006e+00
0.0000000000000000e+00 8.4295796900000006e+00
0.0000000000000000e+00 2.5288739070999998e+01
ITEM: ATOMS id type x y z fx fy fz
1 2       1.221210000000       5.231980000000      22.243540000000      -0.121887030660       0.119258203323      -0.063425110264
2 2       5.237650000000       0.851590000000      13.764740000000      -0.159879156685      -0.033854682909      -0.015288595868
3 2       7.206420000000       7.452900000000       7.438790000000      -0.146300855207       0.079205664306      -0.046475659494
4 2       7.337380000000       7.182800000000      15.874050000000       0.009288880191      -0.014771655983       0.026548075471
5 2       5.262280000000       5.284150000000       0.989390000000       0.125022851536       0.251245246893      -0.013483318862
6 2       3.052210000000       3.226750000000       7.257090000000       0.015410417125      -0.137367592220      -0.018520010047
7 2       0.959650000000       1.054410000000       1.095660000000      -0.126282356195       0.047676969876      -0.027311629165
8 2       5.204810000000       1.034350000000       5.278060000000       0.019330150814       0.153932388886       0.021230856779
9 2       3.203510000000       2.987860000000      15.760020000000      -0.059170723992       0.010168741323       0.019579405377
10 2       5.419340000000       1.125100000000      22.056860000000      -0.098848100141       0.061382918466       0.059462812234
11 2       3.160880000000       7.301970000000      11.590920000000      -0.066485761926      -0.020344019313      -0.000275982503
12 2       7.473940000000       3.217250000000      19.944760000000       0.131912304280      -0.231999148115      -0.035890298951
13 2       1.026680000000       5.133850000000      13.573960000000       0.017776582018       0.106459959322      -0.029000612511
14 2       7.375670000000       3.243790000000       3.225970000000      -0.151677553202      -0.277344478317      -0.000893398849
15 2       5.129570000000       5.365460000000       9.434740000000      -0.056909204577       0.139931404080       0.034392224313
16 2       7.408910000000       7.490870000000      24.262560000000      -0.045394963125      -0.164691423124       0.022125603216
17 2       3.215300000000       7.501050000000      20.060090000000      -0.093666343814      -0.038424342187       0.027066789547
18 2       0.921230000000       1.081600000000       9.588680000000       0.104726586519       0.014129065850      -0.006266575222
19 2       3.247100000000       7.473810000000       3.122450000000       0.102044121272      -0.017014622831      -0.007014262270
20 2       1.187550000000       1.040440000000      17.939900000000      -0.125296844364       0.037011470342       0.029317384028
21 2       3.958730000000       0.190990000000       8.439940000000       0.225574927016      -0.217111006355       0.008165420843
22 2       6.178280000000       6.156380000000      12.622480000000       0.031339565897      -0.044492493382      -0.047041312957
23 2       2.175640000000       2.144200000000      21.088990000000       0.040517392155      -0.124747435162       0.079735985860
24 2       6.450330000000       6.338780000000      21.044450000000       0.017614918864      -0.167696495527       0.074267040881
25 2       1.976770000000       6.446560000000       8.342090000000      -0.065975778506       0.025328516537       0.016333390942
26 2       8.378090000000       2.076790000000       6.283460000000       0.241109532898       0.089508532336      -0.239235425182
27 2       2.009330000000       2.111090000000       4.252050000000      -0.152426667755       0.187242395419       0.109264026400
28 2       0.055120000000       2.030630000000      14.719410000000       0.040766110656       0.195265779348       0.066928724683
29 2       0.163220000000       6.249540000000      18.920480000000       0.058920982674      -0.113862229281      -0.120425943242
30 2       6.310650000000       0.054810000000       2.117230000000       0.040677876426      -0.023144184505      -0.004643441505
31 2       6.136500000000       0.071920000000      10.598340000000       0.023023060047      -0.023242087041       0.058341170869
32 2       4.199500000000       2.214220000000      18.917780000000       0.096996058785      -0.084570159494      -0.171959967447
33 2       6.454050000000       8.396370000000      18.975310000000       0.114748806803       0.095021287893      -0.075779176386
34 2       6.399750000000       2.058540000000      16.839100000000      -0.005139831367       0.007869913209       0.204414517895
35 2       0.162380000000       2.076590000000      23.240350000000      -0.058100618040       0.119356745711       0.171615160153
36 2       2.050110000000       8.221240000000      14.845740000000      -0.100899891325      -0.025058498743      -0.105879820273
37 2       4.034610000000       6.071330000000      14.757950000000       0.203033591310       0.163854232746       0.059253516025
38 2       6.283280000000       4.231110000000       6.351640000000      -0.038676777854      -0.024047491799      -0.199168199716
39 2       4.241350000000       6.426550000000      23.221900000000      -0.099130935031      -0.124732135988       0.191912309341
40 2       0.098030000000       4.216950000000      16.853250000000      -0.043495079093       0.028122386319       0.260754404326
41 2       2.098240000000       4.267130000000       2.106250000000       0.021987041584      -0.016712897237       0.004656392500
42 2       4.156810000000       4.338260000000      21.019940000000       0.037666355544      -0.058735120338       0.040952432555
43 2       4.168100000000       8.238440000000      16.919480000000       0.083941318188       0.046888071202       0.152596275083
44 2       6.352890000000       4.267680000000      23.125620000000       0.072980734333      -0.107911256260       0.097877255347
45 2       8.365520000000       6.255700000000      10.511460000000      -0.005062055894       0.040828560907       0.205654932023
46 2       8.416010000000       8.355570000000      12.669640000000       0.020849582089      -0.110399753616      -0.242022917234
47 2       0.022550000000       4.308790000000       0.044850000000      -0.084228630731       0.049862458987      -0.151602133156
48 2       6.254330000000       4.091900000000      14.724730000000       0.152326533155       0.069178693994      -0.059868665150
49 2       4.174280000000       4.217670000000       4.169860000000       0.087424260101      -0.046601955919       0.169368311371
50 2       2.138790000000       2.048140000000      12.573290000000      -0.131269172508       0.239428637941      -0.151060673887
51 2       2.106820000000       4.141970000000      10.552750000000      -0.190409718011      -0.182027316434       0.106769310942
52 2       0.041530000000       6.481780000000       2.209640000000       0.067549978561       0.031383639393      -0.063043830927
53 2       0.204180000000       8.388570000000      21.176000000000      -0.014577200334      -0.180224691668      -0.135372159217
54 2       4.151030000000       2.048160000000       1.997190000000      -0.118047448625      -0.022127842592       0.048221225970
55 2       6.245880000000       2.063020000000      25.239400000000       0.067936352887       0.065160641550      -0.165879077122
56 2       8.409210000000       4.160180000000       8.428080000000      -0.046707393902       0.053746031258      -0.020963786712
57 2       6.123130000000       2.177240000000       8.530810000000      -0.057091803683       0.078179394005      -0.076348649156
58 2       4.048300000000       6.463510000000       6.266240000000       0.061036864929      -0.046995613213      -0.101721727126
59 2       6.379810000000       6.468190000000       4.271950000000      -0.061914537258      -0.067630723976       0.146451799528
60 2       2.195850000000       6.425310000000      25.260300000000       0.148329604758      -0.167267874871      -0.147672227236
61 2       5.194560000000       3.140260000000      11.634410000000      -0.085774397520      -0.078785444448      -0.016312062246
62 2       3.197580000000       1.075860000000      24.211650000000       0.070999680949      -0.037488530486      -0.007960225419
63 2       3.184530000000       5.207260000000      17.905970000000      -0.075910197497       0.060164401882       0.010600279367
64 2       0.994140000000       7.448170000000       5.266030000000       0.005921720750       0.054929502815       0.004376650750
65 1       2.135710000000       2.153950000000       2.132570000000       0.089853655735       0.028584523826      -0.094741055606
66 1       6.193960000000       6.270100000000       6.285130000000       0.051173063747       0.003503924916      -0.014048163138
67 1       4.289720000000       8.358350000000       6.470620000000      -0.023404126065       0.118969746198       0.048582480812
68 1       4.336180000000       0.130140000000       2.113160000000       0.075619049720      -0.045836193039       0.009902144050
69 1       8.306390000000       6.418720000000       4.143390000000       0.063781457086      -0.025091913381       0.082869765543
70 1       0.035190000000       2.209210000000       4.303270000000       0.106686725973       0.012801635156       0.128849232323
71 1       6.230220000000       4.189130000000       8.399890000000       0.218327958878      -0.108952945460       0.074998237837
72 1       1.910600000000       4.476950000000       0.241890000000      -0.002378072591       0.187771137965      -0.021589463953
73 1       8.418290000000       4.382340000000       2.093000000000       0.131881841357       0.048106770269      -0.014660087692
74 1       8.161480000000       4.031920000000       6.565180000000      -0.025812412662      -0.161883335378      -0.012784447931
75 1       4.318030000000       2.105320000000       0.059790000000      -0.077768392369       0.014156337777      -0.042105230779
76 1       4.040230000000       6.417440000000       8.296160000000       0.017029437298       0.133084205128      -0.089676577280
77 1       2.122570000000       0.079620000000       4.199950000000       0.014092201133      -0.059021529567      -0.040696967378
78 1       6.180050000000       8.372730000000       4.114860000000       0.004022812645       0.086275261714      -0.120769274819
79 1       2.116990000000       6.447750000000       6.401440000000      -0.072568888935      -0.003345252521      -0.065479755959
80 1       6.262380000000       2.133810000000       2.042690000000       0.062558147315       0.061657986420       0.076527059305
81 1       4.212590000000       4.147620000000       2.118380000000      -0.154061371880      -0.061469863004       0.023027036762
82 1       4.248700000000       4.357260000000       6.207060000000      -0.106740006600       0.009049686845       0.038709443234
83 1       8.231050000000       2.113160000000       8.419980000000      -0.025239337866       0.049757867681       0.012658242376
84 1       0.042420000000       6.345500000000       0.086410000000       0.101080773745       0.009586345524      -0.056307572945
85 1       8.289560000000       0.065730000000       6.344090000000       0.008622638757       0.009622977514       0.010604232021
86 1       8.289830000000       8.401630000000       2.100280000000      -0.094116790799       0.046603793539       0.005003706079
87 1       4.265600000000       6.270880000000       4.264180000000      -0.119793437582       0.073292033788       0.051389820161
88 1       4.150990000000       2.180240000000       4.137890000000      -0.069771254281      -0.008085324688       0.028923088134
89 1       6.294290000000       2.174230000000       6.390880000000      -0.030778660607      -0.055438322369      -0.022326945948
90 1       2.066400000000       6.379100000000       2.080630000000      -0.046639722597      -0.027221967039       0.110980701826
91 1       2.288090000000       4.059950000000       3.968820000000       0.010469479894      -0.200315005590       0.039896888255
92 1       6.198830000000       4.348790000000       4.300690000000       0.067080519060       0.058479072247      -0.063807200684
93 1       6.431320000000       0.155300000000       0.113300000000       0.018698093007      -0.064714261451       0.085728157653
94 1       2.055820000000       8.382030000000       8.594160000000       0.058753956068       0.020125147185      -0.045409114108
95 1       6.363810000000       6.398900000000       2.172010000000      -0.065343168948      -0.048520766912      -0.025025002435
96 1       1.923570000000       2.193720000000       6.201650000000      -0.063569961427       0.022009900610       0.006869408165
97 1       2.015550000000       2.171060000000      10.618170000000      -0.031489364665       0.054973036986       0.047153369484
98 1       6.244630000000       6.157470000000      14.681210000000      -0.151890559037       0.014851428174       0.022688129291
99 1       4.135490000000       8.243360000000      14.893880000000       0.039507860305      -0.109761100923       0.117142171964
100 1       4.243210000000       8.250870000000      10.400990000000      -0.126860637951       0.030838781333      -0.027534060902
101 1       8.282420000000       6.327850000000      12.545360000000       0.035307177850      -0.085363301574       0.002844809763
102 1       0.182370000000       1.798980000000      12.853280000000       0.196037066747      -0.023985385117       0.007618838767
103 1       6.598440000000       3.922510000000      16.606800000000       0.072634132239      -0.065087017436       0.025996235381
104 1       2.038150000000       4.339020000000       8.437090000000      -0.038918930500       0.029540179187      -0.030214652011
105 1       0.138100000000       4.381670000000      10.290650000000       0.218362121561       0.020608482330       0.047473952381
106 1       0.007990000000       4.044120000000      14.760700000000      -0.191105772536      -0.184752761354      -0.090983599075
107 1       4.183740000000       2.098550000000       8.262330000000      -0.017793977334      -0.079615085459       0.049679221261
108 1       4.136210000000       6.328290000000      16.733790000000      -0.049772223211      -0.099508234138      -0.110120307100
109 1       2.041610000000       8.388240000000      12.701800000000       0.028650960066      -0.000367758190       0.009728336114
110 1       6.372600000000       8.266070000000      12.598310000000       0.017786292375       0.122297334079      -0.011541842620
111 1       2.116580000000       6.296750000000      14.581970000000       0.079580988217      -0.012083068399       0.048778772549
112 1       6.149360000000       2.008510000000      10.465080000000       0.001461290299       0.057836563491       0.070626505221
113 1       4.130600000000       4.263600000000      10.545340000000       0.027165903785       0.016367845348      -0.037244924885
114 1       4.304740000000       4.164070000000      14.848730000000      -0.027296058398       0.003729473765      -0.001281198085
115 1       0.031410000000       2.044050000000      16.754410000000       0.046356843815       0.073604741144       0.030600569423
116 1       8.389090000000       6.338550000000       8.459260000000       0.104609237156      -0.226618711174      -0.048813952247
117 1       0.042390000000       8.309630000000      14.754070000000       0.214605269189       0.093666286046       0.020251553268
118 1       8.241360000000       8.298540000000      10.638760000000      -0.002289789433       0.115465176644      -0.011015925488
119 1       4.284660000000       6.399500000000      12.793970000000      -0.120029280354      -0.019540224538       0.077687696222
120 1       4.178910000000       1.959200000000      12.696260000000       0.066309788813       0.012564191823       0.009380385931
121 1       6.414330000000       1.975610000000      14.783230000000       0.019444615810       0.095494001079      -0.039414428802
122 1       2.003600000000       6.242100000000      10.469640000000       0.065236111616      -0.001044291353       0.036108137592
123 1       2.051130000000       4.025660000000      12.507620000000      -0.034952728976      -0.087096657937       0.028012646553
124 1       6.236620000000       4.228750000000      12.768650000000       0.014259150733      -0.085363783780      -0.070230513171
125 1       6.151010000000       0.109280000000       8.568520000000      -0.111584909668      -0.034287556386       0.082282387342
126 1       2.245540000000       0.055810000000      16.766700000000      -0.078876610507       0.001079611690       0.013012483779
127 1       6.330270000000       6.356870000000      10.585740000000       0.018078841551      -0.040077395808      -0.027688538258
128 1       2.108330000000       1.891690000000      14.671950000000      -0.022778071925      -0.017428265131      -0.019264440623
129 1       2.288990000000       2.011470000000      19.085660000000      -0.059829020390      -0.033496286776       0.045600723001
130 1       6.375360000000       6.351320000000      23.086210000000      -0.042354042546       0.089288700643       0.069092440446
131 1       4.352540000000       0.036670000000      23.135850000000       0.000612665723       0.069969143173       0.022705363990
132 1       4.400910000000       0.068060000000      18.901310000000      -0.073968653740      -0.048937415319      -0.088974285407
133 1       0.112500000000       6.384680000000      21.105350000000       0.100492793818       0.204212557993      -0.047218309201
134 1       0.113560000000       2.087340000000      21.137060000000      -0.040196602277       0.036642080714      -0.015094003570
135 1       6.434560000000       4.184410000000      25.193960000000      -0.038481389004      -0.072887794212       0.072188451406
136 1       2.117730000000       4.065970000000      16.840940000000       0.065461426381      -0.029372202280       0.041772926132
137 1       0.054220000000       4.279460000000      18.828600000000      -0.025735652863       0.100956949937      -0.069517361732
138 1       8.389080000000       4.169170000000      23.286460000000       0.100885728873       0.005343932419       0.010508236894
139 1       4.368810000000       1.956820000000      16.931620000000      -0.056483855247       0.046917706810       0.081550350924
140 1       4.176130000000       6.317700000000      25.191660000000      -0.130320386304      -0.024460927219      -0.061413661602
141 1       2.107910000000       0.145120000000      21.065550000000       0.027502901081       0.158911678833       0.013458215204
142 1       6.523530000000       0.014910000000      21.000670000000       0.063930364531      -0.101127322052      -0.160761200388
143 1       2.272230000000       6.338810000000      23.308530000000       0.002248284822      -0.015867651331      -0.077512986238
144 1       6.337990000000       2.009280000000      18.884020000000      -0.094213531362       0.134542190011       0.054896652085
145 1       4.227620000000       4.144580000000      19.076370000000       0.015855940528       0.054408331679      -0.101485499246
146 1       4.496210000000       4.497090000000      22.907000000000       0.018083154351       0.122920644342       0.052788332597
147 1       8.363730000000       2.256810000000      25.243560000000       0.122261560430      -0.087180188511      -0.058862286955
148 1       0.019340000000       6.173490000000      16.948700000000      -0.001957679424       0.019049304135       0.062639447054
149 1       8.347490000000       0.161470000000      23.087040000000      -0.012051856379      -0.060168156353       0.026259136491
150 1       0.059380000000       8.395100000000      19.047630000000      -0.002608359130      -0.105247716937      -0.035503883984
151 1       4.381650000000       6.392840000000      21.091450000000      -0.022356715604       0.020868383240      -0.069146866737
152 1       4.274740000000       2.214700000000      20.971040000000       0.073357278951       0.025242537845       0.047347471847
153 1       6.449980000000       2.256530000000      23.229540000000      -0.027407504229       0.052165743176       0.010940761858
154 1       2.164490000000       6.356220000000      19.002330000000      -0.066197323668       0.017908744201      -0.034484555329
155 1       2.235670000000       4.113990000000      21.166070000000       0.081416378192      -0.079280683959       0.003165085310
156 1       6.418140000000       4.322060000000      21.089980000000      -0.320330021007       0.170516554498      -0.003531118215
157 1       6.284440000000       0.006290000000      16.933600000000      -0.034589293935      -0.103411189503      -0.034951457426
158 1       2.085720000000       0.016770000000       0.017440000000      -0.035279061994       0.037808960533       0.026286392874
159 1       6.657320000000       6.516930000000      19.177620000000       0.121784558752       0.028529891924       0.027157123024
160 1       2.069530000000       2.071240000000      23.087100000000       0.036819252531      -0.019541362761      -0.098137047327
