ITEM: TIMESTEP
0
ITEM: NUMBER OF ATOMS
80
ITEM: BOX BOUNDS pp pp pp
0.0000000000000000e+00 9.5803415570000006e+00
0.0000000000000000e+00 9.5803415570000006e+00
0.0000000000000000e+00 9.5803415570000006e+00
ITEM: ATOMS id type c_pe_atom
1 2      -7.110055843221
2 2      -6.906274386612
3 2      -6.906297025651
4 2      -6.906282614974
5 2      -6.906297025651
6 2      -6.906286048749
7 2      -6.906282614974
8 2      -7.110055843221
9 2      -7.110054627563
10 2      -7.110055843221
11 2      -6.906286048749
12 2      -6.906282614974
13 2      -6.906274386612
14 2      -6.906286048749
15 2      -6.906274386612
16 2      -6.906297025651
17 2      -7.110057058092
18 2      -6.906289536249
19 2      -6.906279328972
20 2      -6.906281307739
21 2      -6.906279328972
22 2      -6.906290305731
23 2      -6.906281307739
24 2      -7.110057058092
25 2      -7.110058272284
26 2      -7.110057058092
27 2      -6.906290305731
28 2      -6.906281307739
29 2      -6.906289536249
30 2      -6.906290305731
31 2      -6.906289536249
32 2      -6.906279328972
33 1      -5.234619560602
34 1      -5.234545965368
35 1      -5.234605868084
36 1      -5.234574461659
37 1      -5.234612167963
38 1      -5.234642946739
39 1      -5.234605868084
40 1      -5.234612167963
41 1      -5.234642946739
42 1      -5.234575603222
43 1      -5.234605868084
44 1      -5.234619560602
45 1      -5.234587011730
46 1      -5.234612167963
47 1      -5.234545965368
48 1      -5.234574461659
49 1      -5.234575603222
50 1      -5.234587011730
51 1      -5.234575603222
52 1      -5.234545965368
53 1      -5.234619560602
54 1      -5.234587011730
55 1      -5.234574461659
56 1      -5.234642946739
57 1      -5.234619787109
58 1      -5.234535334811
59 1      -5.234616116237
60 1      -5.234569371563
61 1      -5.234611559010
62 1      -5.234658929548
63 1      -5.234616116237
64 1      -5.234611559010
65 1      -5.234658929548
66 1      -5.234583849531
67 1      -5.234616116237
68 1      -5.234619787109
69 1      -5.234574185195
70 1      -5.234611559010
71 1      -5.234535334811
72 1      -5.234569371563
73 1      -5.234583849531
74 1      -5.234574185195
75 1      -5.234583849531
76 1      -5.234535334811
77 1      -5.234619787109
78 1      -5.234574185195
79 1      -5.234569371563
80 1      -5.234658929548
