ITEM: TIMESTEP
0
ITEM: NUMBER OF ATOMS
80
ITEM: BOX BOUNDS pp pp pp
0.0000000000000000e+00 9.5803415570000006e+00
0.0000000000000000e+00 9.5803415570000006e+00
0.0000000000000000e+00 9.5803415570000006e+00
ITEM: ATOMS id type v_vir_xx v_vir_yy v_vir_zz v_vir_xy v_vir_xz v_vir_yz
1 2      -4.255147348683      -4.255146640346      -4.255143150666      -0.603565811872       0.603568541768       0.603566381762
2 2      -3.322024052142      -3.063269410155      -3.473763829580      -0.000008632995       0.657685763579      -0.000011592156
3 2      -3.473712066546      -3.321986384552      -3.063281404890       0.657688098494       0.000013501680       0.000009487392
4 2      -3.473744930603      -3.322018022952      -3.063265920060      -0.657691710201       0.000007040254      -0.000007740987
5 2      -3.063281404890      -3.473712066546      -3.321986384552       0.000013501680       0.000009487392       0.657688098494
6 2      -3.063295080273      -3.473733413694      -3.321994324440      -0.000008948394       0.000008595886      -0.657684000631
7 2      -3.322018022952      -3.063265920060      -3.473744930603      -0.000007740987      -0.657691710201       0.000007040254
8 2      -4.255143150666      -4.255147348683      -4.255146640346       0.603568541768       0.603566381762      -0.603565811872
9 2      -4.255147879247      -4.255147879247      -4.255147879247      -0.603566772631      -0.603566772631      -0.603566772631
10 2      -4.255146640346      -4.255143150666      -4.255147348683       0.603566381762      -0.603565811872       0.603568541768
11 2      -3.321994324440      -3.063295080273      -3.473733413694       0.000008595886      -0.657684000631      -0.000008948394
12 2      -3.063265920060      -3.473744930603      -3.322018022952       0.000007040254      -0.000007740987      -0.657691710201
13 2      -3.063269410155      -3.473763829580      -3.322024052142      -0.000011592156      -0.000008632995       0.657685763579
14 2      -3.473733413694      -3.321994324440      -3.063295080273      -0.657684000631      -0.000008948394       0.000008595886
15 2      -3.473763829580      -3.322024052142      -3.063269410155       0.657685763579      -0.000011592156      -0.000008632995
16 2      -3.321986384552      -3.063281404890      -3.473712066546       0.000009487392       0.657688098494       0.000013501680
17 2      -4.255141913248      -4.255142633257      -4.255146112945      -0.603568151144       0.603565424022       0.603567584197
18 2      -3.322009203616      -3.063245122800      -3.473734496195      -0.000009188235       0.657693929683      -0.000012546970
19 2      -3.473741071570      -3.322000067600      -3.063315032065       0.657681412668       0.000010637354       0.000008336529
20 2      -3.473753400025      -3.322015235964      -3.063248612959      -0.657687979517       0.000009903898      -0.000008892014
21 2      -3.063315032065      -3.473741071570      -3.322000067600       0.000010637354       0.000008336529       0.657681412668
22 2      -3.063301356700      -3.473719729128      -3.321992130836      -0.000007994417       0.000008040532      -0.657685507189
23 2      -3.322015235964      -3.063248612959      -3.473753400025      -0.000008892014      -0.657687979517       0.000009903898
24 2      -4.255146112945      -4.255141913248      -4.255142633257       0.603565424022       0.603567584197      -0.603568151144
25 2      -4.255141398733      -4.255141398733      -4.255141398733      -0.603567195920      -0.603567195920      -0.603567195920
26 2      -4.255142633257      -4.255146112945      -4.255141913248       0.603567584197      -0.603568151144       0.603565424022
27 2      -3.321992130836      -3.063301356700      -3.473719729128       0.000008040532      -0.657685507189      -0.000007994417
28 2      -3.063248612959      -3.473753400025      -3.322015235964       0.000009903898      -0.000008892014      -0.657687979517
29 2      -3.063245122800      -3.473734496195      -3.322009203616      -0.000012546970      -0.000009188235       0.657693929683
30 2      -3.473719729128      -3.321992130836      -3.063301356700      -0.657685507189      -0.000007994417       0.000008040532
31 2      -3.473734496195      -3.322009203616      -3.063245122800       0.657693929683      -0.000012546970      -0.000009188235
32 2      -3.322000067600      -3.063315032065      -3.473741071570       0.000008336529       0.657681412668       0.000010637354
33 1       3.507543357633       3.358292585502       2.995056165281      -0.298867618873       0.628269870772       0.365294488191
34 1       3.507558335993       3.358291648249       2.995050904795       0.298863977559      -0.628269075682       0.365308495277
35 1       3.358269384698       2.995037728133       3.507538732910      -0.365304029012      -0.298871111130      -0.628269087733
36 1       3.358281479285       2.995029761080       3.507544778609       0.365306006259      -0.298866657035       0.628266873533
37 1       3.358296375677       2.995030499650       3.507543978212      -0.365291891545       0.298862714801       0.628270584468
38 1       3.358285047758       2.995036567158       3.507531907430       0.365293907187       0.298867914964      -0.628267232869
39 1       3.507538732910       3.358269384698       2.995037728133      -0.298871111130      -0.628269087733      -0.365304029012
40 1       3.507543978212       3.358296375677       2.995030499650       0.298862714801       0.628270584468      -0.365291891545
41 1       2.995036567158       3.507531907430       3.358285047758      -0.628267232869       0.365293907187       0.298867914964
42 1       2.995057959953       3.507543300530       3.358281393087       0.628266305020      -0.365309901883       0.298869993391
43 1       2.995037728133       3.507538732910       3.358269384698      -0.628269087733      -0.365304029012      -0.298871111130
44 1       2.995056165281       3.507543357633       3.358292585502       0.628269870772       0.365294488191      -0.298867618873
45 1       2.995049179978       3.507546438376       3.358305748309      -0.628268237505      -0.365295857258      -0.298863979948
46 1       2.995030499650       3.507543978212       3.358296375677       0.628270584468      -0.365291891545       0.298862714801
47 1       2.995050904795       3.507558335993       3.358291648249      -0.628269075682       0.365308495277       0.298863977559
48 1       2.995029761080       3.507544778609       3.358281479285       0.628266873533       0.365306006259      -0.298866657035
49 1       3.507543300530       3.358281393087       2.995057959953       0.298869993391       0.628266305020      -0.365309901883
50 1       3.507546438376       3.358305748309       2.995049179978      -0.298863979948      -0.628268237505      -0.365295857258
51 1       3.358281393087       2.995057959953       3.507543300530      -0.365309901883       0.298869993391       0.628266305020
52 1       3.358291648249       2.995050904795       3.507558335993       0.365308495277       0.298863977559      -0.628269075682
53 1       3.358292585502       2.995056165281       3.507543357633       0.365294488191      -0.298867618873       0.628269870772
54 1       3.358305748309       2.995049179978       3.507546438376      -0.365295857258      -0.298863979948      -0.628268237505
55 1       3.507544778609       3.358281479285       2.995029761080      -0.298866657035       0.628266873533       0.365306006259
56 1       3.507531907430       3.358285047758       2.995036567158       0.298867914964      -0.628267232869       0.365293907187
57 1       3.507537187552       3.358298835720       2.995051981709      -0.298867003344       0.628270590216       0.365296783740
58 1       3.507549787928       3.358295926387       2.995053543561       0.298864540013      -0.628265468562       0.365309384174
59 1       3.358265257315       2.995034214335       3.507535304744      -0.365306811801      -0.298872529760      -0.628267474856
60 1       3.358277244804       2.995036514854       3.507547105598       0.365305298116      -0.298866124532       0.628266063173
61 1       3.358290275828       2.995033809360       3.507538173826      -0.365293266460       0.298865312317       0.628264645363
62 1       3.358277522569       2.995033402248       3.507532396484       0.365290788196       0.298870967964      -0.628271621016
63 1       3.507535304744       3.358265257315       2.995034214335      -0.298872529760      -0.628267474856      -0.365306811801
64 1       3.507538173826       3.358290275828       2.995033809360       0.298865312317       0.628264645363      -0.365293266460
65 1       2.995033402248       3.507532396484       3.358277522569      -0.628271621016       0.365290788196       0.298870967964
66 1       2.995052161989       3.507546978982       3.358282103661       0.628271865538      -0.365307511848       0.298869384890
67 1       2.995034214335       3.507535304744       3.358265257315      -0.628267474856      -0.365306811801      -0.298872529760
68 1       2.995051981709       3.507537187552       3.358298835720       0.628270590216       0.365296783740      -0.298867003344
69 1       2.995053299496       3.507551952968       3.358309749818      -0.628268599230      -0.365295879296      -0.298859785076
70 1       2.995033809360       3.507538173826       3.358290275828       0.628264645363      -0.365293266460       0.298865312317
71 1       2.995053543561       3.507549787928       3.358295926387      -0.628265468562       0.365309384174       0.298864540013
72 1       2.995036514854       3.507547105598       3.358277244804       0.628266063173       0.365305298116      -0.298866124532
73 1       3.507546978982       3.358282103661       2.995052161989       0.298869384890       0.628271865538      -0.365307511848
74 1       3.507551952968       3.358309749818       2.995053299496      -0.298859785076      -0.628268599230      -0.365295879296
75 1       3.358282103661       2.995052161989       3.507546978982      -0.365307511848       0.298869384890       0.628271865538
76 1       3.358295926387       2.995053543561       3.507549787928       0.365309384174       0.298864540013      -0.628265468562
77 1       3.358298835720       2.995051981709       3.507537187552       0.365296783740      -0.298867003344       0.628270590216
78 1       3.358309749818       2.995053299496       3.507551952968      -0.365295879296      -0.298859785076      -0.628268599230
79 1       3.507547105598       3.358277244804       2.995036514854      -0.298866124532       0.628266063173       0.365305298116
80 1       3.507532396484       3.358277522569       2.995033402248       0.298870967964      -0.628271621016       0.365290788196
