ITEM: TIMESTEP
0
ITEM: NUMBER OF ATOMS
120
ITEM: BOX BOUNDS xy xz yz pp pp pp
-5.0637156020000003e+00 1.0127431204000001e+01 -5.0637156020000003e+00
0.0000000000000000e+00 8.7706135340000007e+00 0.0000000000000000e+00
0.0000000000000000e+00 1.3631884907000000e+01 0.0000000000000000e+00
ITEM: ATOMS id type c_pe_atom
1 2      -4.679779466257
2 2      -4.679778444344
3 2      -4.679792128477
4 2      -4.679798406395
5 2      -4.679778780430
6 2      -4.679788031086
7 2      -4.679774559285
8 2      -4.679772490010
9 2      -4.679799251177
10 2      -4.679788975827
11 2      -4.679791535158
12 2      -4.679782234684
13 2      -4.679775298667
14 2      -4.679768973076
15 2      -4.679789103859
16 2      -4.679789877367
17 2      -4.679777254926
18 2      -4.679783532838
19 2      -4.679768497240
20 2      -4.679773576116
21 2      -4.679793071849
22 2      -4.679788451716
23 2      -4.679787407084
24 2      -4.679778198553
25 2      -4.679775804904
26 2      -4.679770788533
27 2      -4.679788998442
28 2      -4.679788561269
29 2      -4.679777906587
30 2      -4.679787082257
31 2      -4.679769276609
32 2      -4.679773454775
33 2      -4.679791120887
34 2      -4.679786992675
35 2      -4.679793873461
36 2      -4.679780146724
37 2      -4.679781913694
38 2      -4.679773226819
39 2      -4.679781444791
40 2      -4.679791797592
41 2      -4.679770073047
42 2      -4.679784741012
43 2      -4.679769844951
44 2      -4.679777569563
45 2      -4.679792259796
46 2      -4.679783033952
47 2      -4.679789624541
48 2      -4.679771569614
49 1     -11.051597488799
50 1     -11.051599691608
51 1     -11.051594357669
52 1     -11.051594512900
53 1     -11.051599774761
54 1     -11.051599446990
55 1     -11.051600730108
56 1     -11.051601916740
57 1     -11.051600412201
58 1     -11.051597361894
59 1     -11.051600625250
60 1     -11.051599675332
61 1     -11.051599344959
62 1     -11.051595961199
63 1     -11.051595565021
64 1     -11.051593863730
65 1     -11.051595596961
66 1     -11.051592716236
67 1     -11.051620679794
68 1     -11.051601005275
69 1     -11.051601512224
70 1     -11.051600533966
71 1     -11.051609494650
72 1     -11.051610211146
73 1     -11.051608465385
74 1     -11.051614425091
75 1     -11.051604048999
76 1     -11.051612966762
77 1     -11.051595199744
78 1     -11.051615920260
79 1     -11.051597597453
80 1     -11.051603547585
81 1     -11.051619891525
82 1     -11.051613158576
83 1     -11.051608687372
84 1     -11.051601051560
85 1     -11.051594951127
86 1     -11.051604958698
87 1     -11.051608809382
88 1     -11.051597850093
89 1     -11.051598390528
90 1     -11.051608184242
91 1     -11.051614020511
92 1     -11.051596768418
93 1     -11.051606059815
94 1     -11.051608115369
95 1     -11.051612529650
96 1     -11.051595626568
97 1     -11.051600713362
98 1     -11.051609750172
99 1     -11.051595232519
100 1     -11.051596475811
101 1     -11.051608518185
102 1     -11.051599046369
103 1     -11.051608859949
104 1     -11.051601908159
105 1     -11.051610167405
106 1     -11.051613435675
107 1     -11.051615736673
108 1     -11.051612371896
109 1     -11.051609797956
110 1     -11.051623275573
111 1     -11.051604242673
112 1     -11.051611866779
113 1     -11.051600679875
114 1     -11.051608958730
115 1     -11.051600675899
116 1     -11.051605334227
117 1     -11.051605617256
118 1     -11.051607666053
119 1     -11.051610279354
120 1     -11.051611724404
