ITEM: TIMESTEP
0
ITEM: NUMBER OF ATOMS
120
ITEM: BOX BOUNDS xy xz yz pp pp pp
-5.0637156020000003e+00 1.0127431204000001e+01 -5.0637156020000003e+00
0.0000000000000000e+00 8.7706135340000007e+00 0.0000000000000000e+00
0.0000000000000000e+00 1.3631884907000000e+01 0.0000000000000000e+00
ITEM: ATOMS id type x y z fx fy fz
1 2       0.000000000000       0.000000000000       1.964200000000      -0.000028294576       0.000048356372      -0.096073549861
2 2      -0.000000000000       2.923540000000       0.307790000000      -0.000032073908      -0.000043315216       0.095976225711
3 2       2.531860000000       1.461770000000       2.579760000000       0.000045080562      -0.000020577059       0.096021176524
4 2      -0.000000000000       2.923540000000       4.236190000000       0.000039172234      -0.000016487303      -0.096071619551
5 2       2.531860000000       1.461770000000       6.508160000000      -0.000015717797      -0.000014231605      -0.096005491517
6 2       0.000000000000       0.000000000000       4.851740000000      -0.000063239502       0.000044229640       0.096098316170
7 2      -0.000000000000       2.923540000000       7.123730000000       0.000022583146      -0.000055893469       0.096011854094
8 2       0.000000000000       0.000000000000       8.780140000000       0.000010523710       0.000074837521      -0.096066601153
9 2      -0.000000000000       2.923540000000      11.052130000000      -0.000037894100      -0.000021080384      -0.096061230279
10 2       2.531860000000       1.461770000000       9.395700000000      -0.000021398885      -0.000017039761       0.096037320899
11 2       0.000000000000       0.000000000000      11.667680000000      -0.000032641844       0.000026493089       0.096093642097
12 2       2.531860000000       1.461770000000      13.324100000000      -0.000041880537      -0.000044035744      -0.095959702211
13 2       7.595570000000       4.385310000000       1.964200000000       0.000108662353      -0.000101401478      -0.096059335195
14 2      -2.531860000000       7.308840000000       0.307790000000       0.000065558673       0.000165161007       0.095966362128
15 2      -0.000000000000       5.847080000000       2.579760000000       0.000018911345      -0.000044874139       0.096011805525
16 2      -2.531860000000       7.308840000000       4.236190000000       0.000071127892       0.000111481107      -0.096073534011
17 2      -0.000000000000       5.847080000000       6.508160000000      -0.000025779500      -0.000120232983      -0.095992343265
18 2       7.595570000000       4.385310000000       4.851740000000       0.000017122086      -0.000082447457       0.096089689510
19 2      -2.531860000000       7.308840000000       7.123730000000       0.000079574256       0.000146838556       0.095987505731
20 2       7.595570000000       4.385310000000       8.780140000000       0.000099466732      -0.000081233640      -0.096050888727
21 2      -2.531860000000       7.308840000000      11.052130000000       0.000022668635       0.000138917748      -0.096077122805
22 2      -0.000000000000       5.847080000000       9.395700000000      -0.000033098604      -0.000055162496       0.096026133472
23 2       7.595570000000       4.385310000000      11.667680000000       0.000103497168      -0.000081561551       0.096085909374
24 2      -0.000000000000       5.847080000000      13.324100000000       0.000032328764      -0.000121942793      -0.095972815652
25 2       5.063720000000       0.000000000000       1.964200000000      -0.000096829280       0.000029939094      -0.096064378463
26 2       5.063720000000       2.923540000000       0.307790000000      -0.000096500144      -0.000042553336       0.095975990069
27 2       7.595570000000       1.461770000000       2.579760000000       0.000083610742      -0.000009535209       0.096021841674
28 2       5.063720000000       2.923540000000       4.236190000000      -0.000108924522      -0.000041386470      -0.096070561452
29 2       7.595570000000       1.461770000000       6.508160000000       0.000028284897      -0.000030915164      -0.096007346560
30 2       5.063720000000       0.000000000000       4.851740000000      -0.000137057825      -0.000014301124       0.096075828984
31 2       5.063720000000       2.923540000000       7.123730000000      -0.000045929816      -0.000032634117       0.096011920581
32 2       5.063720000000       0.000000000000       8.780140000000      -0.000032225456       0.000006574445      -0.096079139123
33 2       5.063720000000       2.923540000000      11.052130000000      -0.000122913988      -0.000008658064      -0.096047320241
34 2       7.595570000000       1.461770000000       9.395700000000       0.000042429157      -0.000016357395       0.096049367817
35 2       5.063720000000       0.000000000000      11.667680000000      -0.000086228831       0.000017194624       0.096111043864
36 2       7.595570000000       1.461770000000      13.324100000000       0.000095018833      -0.000035366543      -0.095977168751
37 2       2.531860000000       4.385310000000       1.964200000000      -0.000007081333      -0.000103494145      -0.096058514856
38 2       2.531860000000       7.308840000000       0.307790000000      -0.000062477771       0.000100351268       0.095970760080
39 2       5.063720000000       5.847080000000       2.579760000000      -0.000075574630      -0.000050656160       0.095998453007
40 2       2.531860000000       7.308840000000       4.236190000000       0.000000656954       0.000090250812      -0.096082506569
41 2       5.063720000000       5.847080000000       6.508160000000      -0.000128755376      -0.000125652751      -0.095977130294
42 2       2.531860000000       4.385310000000       4.851740000000      -0.000020100350      -0.000098043325       0.096088023699
43 2       2.531860000000       7.308840000000       7.123730000000       0.000058055467       0.000096666237       0.095988241178
44 2       2.531860000000       4.385310000000       8.780140000000       0.000013838423      -0.000100559134      -0.096057011637
45 2       2.531860000000       7.308840000000      11.052130000000      -0.000039161100       0.000065889484      -0.096073473861
46 2       5.063720000000       5.847080000000       9.395700000000      -0.000107952265      -0.000062292864       0.096017456491
47 2       2.531860000000       4.385310000000      11.667680000000       0.000026485758      -0.000090240298       0.096092623461
48 2       5.063720000000       5.847080000000      13.324100000000      -0.000093428937      -0.000105635918      -0.095971476654
49 1      -0.767260000000       1.328940000000       3.407970000000      -0.054801897756       0.094859169765       0.000041879108
50 1       1.534530000000       0.000000000000       3.407970000000       0.109494647832      -0.000065351429       0.000057012161
51 1       1.764600000000       3.056370000000       3.407970000000      -0.054839029139      -0.094835832954       0.000060596650
52 1       3.299120000000       0.132830000000       1.135990000000       0.054793218149      -0.094855713291       0.000027159541
53 1       3.299120000000       2.790700000000       1.135990000000       0.054763351174       0.094992992220       0.000053869721
54 1       0.997330000000       1.461770000000       1.135990000000      -0.109485886535      -0.000048471515       0.000033827610
55 1       1.764600000000       2.790700000000       7.951930000000      -0.054756840478       0.094983047637       0.000068628422
56 1       4.066390000000       1.461770000000       7.951930000000       0.109485397101      -0.000049219758       0.000053414305
57 1       1.764600000000       0.132830000000       7.951930000000      -0.054829888098      -0.094846023458       0.000072474667
58 1       0.767260000000       1.594600000000       5.679960000000       0.054725828258      -0.094901072023      -0.000101538032
59 1       0.767260000000       4.252470000000       5.679960000000       0.054843373206       0.094941156021      -0.000085373597
60 1      -1.534530000000       2.923540000000       5.679960000000      -0.109516186152       0.000069479642      -0.000119351689
61 1      -0.767260000000       4.252470000000      12.495900000000      -0.054869416385       0.094937588640      -0.000065920283
62 1       1.534530000000       2.923540000000      12.495900000000       0.109484316551       0.000065971733      -0.000083631072
63 1      -0.767260000000       1.594600000000      12.495900000000      -0.054763530793      -0.094886535546      -0.000068547369
64 1       8.362830000000       3.056370000000      10.223910000000       0.054855294537      -0.094845704945       0.000081485617
65 1       0.767260000000       1.328940000000      10.223910000000       0.054778855178       0.094857189591       0.000040668428
66 1       3.529190000000       0.000000000000      10.223910000000      -0.109562224041      -0.000100570429       0.000072046078
67 1       6.828310000000       5.714240000000       3.407970000000      -0.054703429874       0.094929637068       0.000092072441
68 1      -0.997330000000       4.385310000000       3.407970000000       0.109490474399      -0.000022049702       0.000045417489
69 1      -0.767260000000       7.441680000000       3.407970000000      -0.054845764029      -0.094909499011       0.000075493976
70 1       0.767260000000       4.518140000000       1.135990000000       0.054811730186      -0.094804650209       0.000043729477
71 1       0.767260000000       7.176010000000       1.135990000000       0.054781855628       0.094874735469       0.000026251526
72 1      -1.534530000000       5.847080000000       1.135990000000      -0.109455221842      -0.000122420675       0.000064632553
73 1      -0.767260000000       7.176010000000       7.951930000000      -0.054751172138       0.094893674473       0.000060742687
74 1       1.534530000000       5.847080000000       7.951930000000       0.109462356685      -0.000112749538       0.000085332153
75 1      -0.767260000000       4.518140000000       7.951930000000      -0.054828458791      -0.094800308697       0.000066481489
76 1      -1.764600000000       5.979910000000       5.679960000000       0.054728226046      -0.094925522267      -0.000104156006
77 1      -1.764600000000       8.637780000000       5.679960000000       0.054893114413       0.094814211978      -0.000130621767
78 1      -4.066390000000       7.308840000000       5.679960000000      -0.109435379979       0.000140374571      -0.000167172117
79 1      -3.299120000000       8.637780000000      12.495900000000      -0.054814306792       0.094818038900      -0.000079427055
80 1      -0.997330000000       7.308840000000      12.495900000000       0.109487920205       0.000131816178      -0.000143738187
81 1      -3.299120000000       5.979910000000      12.495900000000      -0.054695221283      -0.094907140885      -0.000114644592
82 1       5.830970000000       7.441680000000      10.223910000000       0.054910693927      -0.094878738786       0.000102481543
83 1      -1.764600000000       5.714240000000      10.223910000000       0.054791782880       0.094949640667       0.000042798731
84 1       0.997330000000       4.385310000000      10.223910000000      -0.109515627497      -0.000016160651       0.000040196860
85 1       4.296460000000       1.328940000000       3.407970000000      -0.054803036574       0.094869910979       0.000030826995
86 1       6.598240000000       0.000000000000       3.407970000000       0.109595033422      -0.000089334396       0.000074164675
87 1       6.828310000000       3.056370000000       3.407970000000      -0.054744591954      -0.094829695135       0.000044041961
88 1       8.362830000000       0.132830000000       1.135990000000       0.054862608349      -0.094850443902       0.000064133008
89 1       8.362830000000       2.790700000000       1.135990000000       0.054784032259       0.094986246874       0.000041054826
90 1       6.061050000000       1.461770000000       1.135990000000      -0.109537773404      -0.000035131839       0.000017740964
91 1       6.828320000000       2.790700000000       7.951930000000      -0.054844089241       0.094972677517       0.000041818720
92 1       9.130100000000       1.461770000000       7.951930000000       0.109526940914      -0.000049581316       0.000047603806
93 1       6.828320000000       0.132830000000       7.951930000000      -0.054893322247      -0.094837606916       0.000080144117
94 1       5.830970000000       1.594600000000       5.679960000000       0.054831580501      -0.094876995510      -0.000063150443
95 1       5.830970000000       4.252470000000       5.679960000000       0.054945765125       0.094925216065      -0.000095578394
96 1       3.529190000000       2.923540000000       5.679960000000      -0.109536427572       0.000069269431      -0.000104941460
97 1       4.296460000000       4.252470000000      12.495900000000      -0.054852556429       0.094952623991      -0.000062285201
98 1       6.598240000000       2.923540000000      12.495900000000       0.109533812687       0.000048497479      -0.000088304941
99 1       4.296450000000       1.594600000000      12.495900000000      -0.054603653084      -0.094908911891      -0.000113104847
100 1       3.299120000000       3.056370000000      10.223910000000       0.054833227450      -0.094825367647       0.000057592437
101 1       5.830970000000       1.328940000000      10.223910000000       0.054859563123       0.094860981257       0.000027307929
102 1       8.592900000000       0.000000000000      10.223910000000      -0.109493634467      -0.000051680220       0.000057181972
103 1       1.764600000000       5.714240000000       3.407970000000      -0.054791113990       0.094943549190       0.000042278845
104 1       4.066390000000       4.385310000000       3.407970000000       0.109494805276      -0.000008535340       0.000031514985
105 1       4.296460000000       7.441680000000       3.407970000000      -0.054872185116      -0.094882168989       0.000067405696
106 1       5.830980000000       4.518140000000       1.135990000000       0.054731899815      -0.094806285281       0.000005030548
107 1       5.830980000000       7.176010000000       1.135990000000       0.054672202327       0.094891217045       0.000060704619
108 1       3.529190000000       5.847080000000       1.135990000000      -0.109445407274      -0.000114744967       0.000066270108
109 1       4.296460000000       7.176010000000       7.951930000000      -0.054802405687       0.094893868200       0.000044860693
110 1       6.598240000000       5.847080000000       7.951930000000       0.109534850127      -0.000121378378       0.000079724011
111 1       4.296460000000       4.518140000000       7.951930000000      -0.054831105009      -0.094819069708       0.000079202885
112 1       3.299120000000       5.979910000000       5.679960000000       0.054741277023      -0.094910239916      -0.000107566763
113 1       3.299110000000       8.637780000000       5.679960000000       0.054953895463       0.094833980824      -0.000160763192
114 1       0.997330000000       7.308840000000       5.679960000000      -0.109494158470       0.000113620676      -0.000145706229
115 1       1.764600000000       8.637780000000      12.495900000000      -0.054870663081       0.094843053027      -0.000093378156
116 1       4.066380000000       7.308840000000      12.495900000000       0.109600296979       0.000116506759      -0.000117252132
117 1       1.764600000000       5.979910000000      12.495900000000      -0.054775158320      -0.094916930513      -0.000076580325
118 1       0.767260000000       7.441680000000      10.223910000000       0.054856957556      -0.094890966661       0.000066241638
119 1       3.299120000000       5.714240000000      10.223910000000       0.054790915887       0.094928612774       0.000041018599
120 1       6.061050000000       4.385310000000      10.223910000000      -0.109562834024      -0.000023134258       0.000038947133
