ITEM: TIMESTEP
0
ITEM: NUMBER OF ATOMS
30
ITEM: BOX BOUNDS xy xz yz pp pp pp
-2.5824949469999998e+00 5.1649899140000004e+00 -2.5824949469999998e+00
0.0000000000000000e+00 4.4730129019999998e+00 0.0000000000000000e+00
0.0000000000000000e+00 1.3904522606000000e+01 0.0000000000000000e+00
ITEM: ATOMS id type x y z fx fy fz
1 2       0.000000000000       0.000000000000       2.004190000000      -0.000013579035      -0.000044695265      -0.091117132014
2 2       0.000000006667       2.982010000000       0.313240000000      -0.000016122701      -0.000048201301       0.091016804309
3 2       2.582490003333       1.491000000000       2.630650000000       0.000055607503       0.000045846116       0.091066616401
4 2       0.000000006667       2.982010000000       4.321610000000      -0.000017846930      -0.000027932331      -0.091038165077
5 2       2.582490003333       1.491000000000       6.639020000000       0.000044242127       0.000054639779      -0.090981451813
6 2       0.000000000000       0.000000000000       4.948070000000      -0.000021643336       0.000008893065       0.091144897242
7 2       0.000000006667       2.982010000000       7.265500000000      -0.000018553603      -0.000066628694       0.091054009469
8 2       0.000000000000       0.000000000000       8.956450000000      -0.000017949206      -0.000030195738      -0.091140923546
9 2       0.000000006667       2.982010000000      11.273870000000       0.000004331490      -0.000024891665      -0.091016723706
10 2       2.582490003333       1.491000000000       9.582910000000       0.000066365565       0.000043572821       0.091029420214
11 2       0.000000000000       0.000000000000      11.900330000000      -0.000011807013       0.000005963186       0.091155931556
12 2       2.582490003333       1.491000000000      13.591290000000       0.000068574396       0.000063070190      -0.091062996441
13 1      -0.782509996970       1.355350000000       3.476130000000       0.035153638185      -0.060950551857       0.000032165501
14 1       1.565020000000       0.000000000000       3.476130000000      -0.070356719966      -0.000025355666       0.000039255948
15 1       1.799980006970       3.117660000000       3.476130000000       0.035201869606       0.060962315640       0.000020814319
16 1       3.365010000303       0.135650000000       1.158710000000      -0.035216639568       0.060981735903       0.000049691387
17 1       3.365010006363       2.846350000000       1.158710000000      -0.035246915546      -0.060923010022       0.000061656805
18 1       1.017470003333       1.491000000000       1.158710000000       0.070425286785       0.000006495478       0.000032575120
19 1       1.799980006363       2.846350000000       8.110970000000       0.035249470474      -0.060934658903       0.000071865844
20 1       4.147520003333       1.491000000000       8.110970000000      -0.070393604949       0.000017666754       0.000026191062
21 1       1.799990000303       0.135650000000       8.110970000000       0.035102926847       0.060988651621       0.000076497699
22 1       0.782510003637       1.626660000000       5.793560000000      -0.035231593242       0.060913292037      -0.000112154894
23 1       0.782510009697       4.337360000000       5.793560000000      -0.035164317572      -0.060983705394      -0.000134669376
24 1      -1.565029993333       2.982010000000       5.793560000000       0.070415496336       0.000021576713      -0.000101932863
25 1      -0.782509990303       4.337360000000      12.745820000000       0.035132788804      -0.060967051699      -0.000102684134
26 1       1.565020006667       2.982010000000      12.745820000000      -0.070332509526       0.000010856531      -0.000080976634
27 1      -0.782509996363       1.626660000000      12.745820000000       0.035176198846       0.060916039217      -0.000080966942
28 1      -1.799979993030       3.117660000000      10.428390000000      -0.035216934574       0.060967147324       0.000021546766
29 1       0.782510003030       1.355350000000      10.428390000000      -0.035161645159      -0.060956036123       0.000028140682
30 1       3.599970000000       0.000000000000      10.428390000000       0.070341584962      -0.000024847718       0.000042697116
