ITEM: TIMESTEP
0
ITEM: NUMBER OF ATOMS
30
ITEM: BOX BOUNDS xy xz yz pp pp pp
-2.5824949469999998e+00 5.1649899140000004e+00 -2.5824949469999998e+00
0.0000000000000000e+00 4.4730129019999998e+00 0.0000000000000000e+00
0.0000000000000000e+00 1.3904522606000000e+01 0.0000000000000000e+00
ITEM: ATOMS id type c_pe_atom
1 2      -6.362095935894
2 2      -6.362035369831
3 2      -6.362149961365
4 2      -6.362227190973
5 2      -6.362035690409
6 2      -6.362198371315
7 2      -6.362047837769
8 2      -6.362107182036
9 2      -6.362195601621
10 2      -6.362140058623
11 2      -6.362216807672
12 2      -6.362092850673
13 1      -5.623128863695
14 1      -5.623049783090
15 1      -5.623069889275
16 1      -5.623129955922
17 1      -5.623164601680
18 1      -5.623166283323
19 1      -5.623203708488
20 1      -5.623207795580
21 1      -5.623179115027
22 1      -5.623133032063
23 1      -5.623139020348
24 1      -5.623128422716
25 1      -5.623106191278
26 1      -5.623163441978
27 1      -5.623204789598
28 1      -5.623058422659
29 1      -5.623058835734
30 1      -5.623091306803
