ITEM: TIMESTEP
0
ITEM: NUMBER OF ATOMS
160
ITEM: BOX BOUNDS pp pp pp
0.0000000000000000e+00 8.5039773939999996e+00
0.0000000000000000e+00 8.5039773939999996e+00
0.0000000000000000e+00 2.5511932182999999e+01
ITEM: ATOMS id type v_vir_xx v_vir_yy v_vir_zz v_vir_xy v_vir_xz v_vir_yz
1 2      -2.544546869183      -0.399585459260      -0.473336765407       0.050074122188      -0.231244812192      -0.169054140972
2 2      -2.482408377043      -1.708157501469      -2.283071025553      -0.315141523944       0.311330261462       0.228773218663
3 2      -1.581883145966      -2.313008731826      -2.085097707570       0.383663366139       0.519767849629       0.018860507315
4 2      -0.108230324870      -2.141386176888      -2.182826869596       0.209194171432      -0.283447179950       0.508329827123
5 2      -2.212820464751      -0.141149771104      -1.944863049514       0.025385270771      -0.113993643419       0.100164464993
6 2      -2.476303453142      -0.420675915408      -1.045673303531       0.249314209475      -0.057036444962      -0.188576450577
7 2      -1.777251025133      -2.590342896056      -0.480421770016      -0.610958455293       0.083610126533      -0.116291730313
8 2      -0.089632841698      -3.008094799644      -2.003793381169       0.074638596071      -0.244739479145      -0.347709821633
9 2      -3.036116618545      -1.898489242891      -0.452818597457      -0.527869252911       0.012925532635      -0.328649170290
10 2      -1.645274113191      -2.413606740061      -2.080537949358       0.366562680337       0.205228653926      -0.260680472872
11 2      -3.019469938927      -0.487548333189      -2.188786053539      -0.009061311077       0.204666399947      -0.019862363356
12 2       0.018669305875      -2.183375125920      -2.166271766795       0.068507283461       0.431691987363       0.387860062076
13 2      -0.598159400377      -2.527400089647      -1.267008816960      -0.272780066292       0.462857225820      -0.204292736652
14 2      -2.098079298155      -0.174157165782      -2.019060207918       0.051462255917      -0.103927052775       0.072879330751
15 2      -2.397105773785      -1.669510840165      -2.043188498804       0.442881926656       0.142853331645       0.472127005910
16 2       0.208736735062      -2.834725322153      -2.338256445935      -0.181327179024      -0.297662330536      -0.110443768628
17 2      -2.505608549611      -1.934524690702      -0.548637417825       0.517515447371      -0.019295619364       0.088221856084
18 2      -0.435266843575      -2.542706876206      -1.081637730655       0.140405344458      -0.208842021187      -0.214899722947
19 2      -1.782583940104      -2.624936854143      -0.510353387903      -0.600068794422       0.134486465332      -0.122345657530
20 2      -2.946551488428       0.055566438577      -2.380912715094       0.248009439993       0.148262100433       0.437479685980
21 2      -1.359638750485      -1.472655103927       0.662812121268      -0.336315074487       0.024550556443       0.083707063661
22 2      -0.803860105476      -0.884398800529      -2.524370935175      -0.448852128414      -0.639583212590       0.166383566988
23 2      -2.377519966933       0.253906479900       0.461662427001       0.075329329825       0.128581738668       0.488791579096
24 2      -1.277746814862      -2.012589816347      -1.702537531046      -0.503286134377       1.007868993008       0.661409506077
25 2      -2.122693746033      -0.290992342644      -0.734486066496      -0.082102211328       0.100711633291       0.965195656874
26 2      -1.144525716174       0.775099583739      -1.055974501933       0.170014509402       0.029241711849      -0.448229537123
27 2      -1.034468246155       1.140056289048      -1.397631425802      -0.213107266045       0.075940370366       0.202693279360
28 2      -1.710005228852      -1.573456958792      -1.836536891522       0.590380560859       0.808632054736      -0.939653515885
29 2       0.808933551304      -1.035499329856      -0.949313499821      -0.015195969629       0.344557847355      -0.272918693872
30 2       0.408704066286      -2.215268803716       0.720723790435       0.466489847505       0.005635827351       0.290540274596
31 2      -0.799269666109      -1.029266031470      -2.598805768050       0.396790022466       0.848899760342       0.095048952091
32 2      -0.643467038823      -0.601806222483      -2.591401622730       0.345984171215      -0.517584654856       0.303724872075
33 2      -1.594327060650      -1.742233545182      -2.116061512580       0.467301577357       0.022825987291       0.572411722340
34 2      -1.790465439982      -1.537747575886      -2.453016745334      -0.502954623917      -0.239972123663       0.715795096470
35 2      -0.904035467041      -0.688720358478      -2.035872007637       0.311495995395       0.231619776436       0.906069854252
36 2      -2.025758442205      -0.588781934254      -0.823282316264       0.807956440770      -0.155345771886       0.318058959560
37 2      -1.176494276234      -1.506673953271       0.665663094944      -0.308291470159       0.554042322213       0.211937471034
38 2      -1.508641036722      -1.839433416451      -2.015507817211       0.351388846799      -0.267986213057      -0.090051892387
39 2      -1.172255267573       1.122637147712      -1.365209453078       0.146043269262      -0.252076432510      -0.399999252922
40 2       1.061046554717      -1.357277682400      -1.536639824040      -0.160654896820      -0.294173696596       0.054100208270
41 2      -2.025087526666      -1.791984896108      -1.241957156410      -0.037075238558      -0.769483828662       0.970119579435
42 2      -0.877948732914      -1.985284501276       0.031673925490       0.546666521235      -0.704195322423      -0.274197288364
43 2      -0.836789329731      -0.835190184059      -2.630210013573      -0.384035752893       0.859676135072       0.028499771860
44 2      -1.537963059310      -2.010779391363      -2.228625198456       0.501452404667      -0.413728715590      -0.041789789437
45 2      -1.896472967962      -1.605777372525      -2.157878721537       0.414900107146      -0.033638756859      -0.328095400322
46 2      -1.821005528599      -1.717722663502      -1.883563259675      -0.243493196133       0.167913624805      -0.322829965926
47 2      -1.530803043162      -1.742462119535      -1.919361595215      -0.441028063471      -0.468087463125       0.083863780374
48 2      -0.933749765334      -2.166107835584      -0.312914011047      -0.490865724934      -0.892111314020       0.251074437840
49 2      -1.560197953415      -1.764880679358      -2.110046359578      -0.505733734863      -0.502724622611       0.215803227958
50 2       0.673374415166      -1.209765772482      -1.316869025028      -0.167880892176       0.325187574753      -0.092100621855
51 2       0.899235101831      -1.123197903942      -1.353182185866       0.126585304784      -0.388571662092      -0.127881723000
52 2      -1.729213049310      -0.556975385494      -0.490310868950      -0.033937448340       0.240769997138      -0.494865134848
53 2      -0.766537830820      -1.844180440030      -0.430093850881      -0.619005250744       0.033950304288      -0.345448628562
54 2      -1.721224047653      -0.547722956892      -0.413233749301      -0.007203471970       0.281395919488      -0.501885720527
55 2      -0.649595309272      -0.587767481543      -1.956086201493      -0.169566419301      -0.050567086299      -0.542549220361
56 2      -1.815055758008      -1.775691221631      -1.139535124360      -0.055678136212      -0.887688163354      -0.981247208779
57 2      -0.206862598347      -2.138343201295      -0.714922322127      -0.089455894232       0.949935725750      -0.001647484927
58 2      -1.056845012743      -0.762627745533      -2.525992593695       0.449798591327       0.178079054006       0.826773805816
59 2      -0.584377341459      -0.608510661024      -1.990194026463      -0.188156191790       0.076307009946      -0.514962366339
60 2      -0.975988697354       1.103003258462      -1.357870321548      -0.198630932660       0.134087186697       0.057969566794
61 2       0.833755537816      -1.087366424673      -1.112200831290       0.029913854252      -0.016469823922       1.148195928042
62 2      -0.863066206859       0.645649436385      -0.804563979341       0.070168718346       1.138409650630       0.204860295786
63 2       0.597026052410      -0.963267420632      -0.812882856534       0.009505374908      -0.073144942483      -1.243926565160
64 2      -0.952980541949       0.757946057426      -0.899808569516       0.063752070536       1.159384449302       0.066337004055
65 1       2.806998032580       2.361693875469       2.133848952003       0.407323071210       0.118850318095       0.205355261403
66 1       2.160332591159       2.270981190509       2.680707156378       0.483698390157       0.377853807972       0.310641911176
67 1       0.305907076694       1.622830597085       2.427583554967      -0.185745645944      -0.268116960166      -0.600019724381
68 1       1.461147156227       1.683902007065      -0.108692849257       0.394932164627      -0.050188231654       0.011878943954
69 1       1.982712010609       0.420766928198       1.897354162027       0.131536048322       0.426278444597       0.071218965411
70 1       2.008556010103       0.631925532358       1.931430738128      -0.163033560809       0.438272918398      -0.228511086807
71 1       2.093478601513       2.299288839757       1.702191406253      -0.411615287457      -0.343675389777       0.297413927209
72 1       0.881420857532       1.431163081217       0.861163671705      -0.096500422501       0.439878849627      -0.050892064080
73 1       2.281601165077       2.269659018322       1.813785664033       0.392122795376      -0.585645818645      -0.321980184084
74 1       0.715907623823       1.504756943720       1.116364433464       0.222749054650       0.482833497371       0.023292084529
75 1       1.967965081256       0.421257786234       1.870794903461       0.154155174927       0.511914625034       0.096726524346
76 1       2.194934482825       1.852829026076       1.868262196422      -0.658690464678       0.724110616705      -0.827148575353
77 1       1.216836436664       2.071961119399       0.782224478453      -0.277869258427      -0.305488440142       0.139091731616
78 1       0.019170443324       1.871612749100       1.954680900861       0.076136737038      -0.251807143995       0.407298871870
79 1       1.923367564092       0.475686718892       1.993730822459      -0.118043521285       0.483454615669      -0.181653011005
80 1       2.239348531721       2.090931665404       2.290593383639       0.714044377902       0.784442492804       0.735888924645
81 1       2.292338956607       2.284568960672       1.820674822432       0.413727764590      -0.610323943723      -0.324790356205
82 1       2.360055482122       2.245445581257       1.927563668477       0.232743723917      -0.398901903785      -0.244893361918
83 1       2.814276269648       2.397315811212       2.208035830893      -0.395038837456       0.167061600836      -0.462496436838
84 1       2.197217940563       2.177585658078       2.966584657696      -0.171486551800       0.365825498069      -0.614988245170
85 1       1.059876749678       1.744057909125       0.986500939884       0.156690812898      -0.463774071537      -0.098497391056
86 1       1.556707270874       1.705861141299      -0.007080776620       0.419063714698      -0.054307272568       0.010459855288
87 1       2.394354290663       2.466129214831       2.499871050832      -0.494833313000       0.369500343676      -0.188967807496
88 1       2.225987679149       2.215552237043       2.978325109173      -0.162814251071       0.393070306553      -0.718301830670
89 1       1.842193284720       2.443167787821       2.706764730971       0.149966027079       0.475329513643       0.686783809101
90 1       2.878983101139       2.378012080763       2.184002036898       0.414583165330       0.122505028293       0.210494170571
91 1       0.756608281933       1.357779088093       0.944838673303      -0.142756915318       0.450926191897      -0.056869253547
92 1       2.042900410699       2.250340527595       2.409028129853      -0.229603699127      -0.415370257800       0.440257212604
93 1      -0.133284940636       1.764983563414       1.896420049814       0.141876771987      -0.101494340661       0.354755608135
94 1       1.750029551906       1.863671690508       0.623163102431      -0.391520968330      -0.401039049143       0.006098463867
95 1       2.203653884286       2.074524129496       2.200172514384       0.715624792737       0.808003970671       0.766992485334
96 1       2.150546046615       0.806979405456       1.747995947540       0.240243274646       0.108295181518       0.035623531497
97 1       0.968284352790       2.067972278813       1.798697545496       0.235852069925       0.237587238393       0.020188368732
98 1       2.101970456147       2.157083729818       2.051034346993       0.393290752907       0.667699074987       0.683969750836
99 1       2.304733941954       1.774631589329       1.875693009568       0.616736632812      -0.725191304717      -0.573154787203
100 1       1.585094237641       0.417754437310       2.511611766813      -0.165519547221      -0.605213143265      -0.417946897365
101 1       2.297784144578       2.418282457885       2.154729944169      -0.337130131027       0.296874339345      -0.539935369166
102 1       1.359385415596       0.611751229927       0.497412846941      -0.244212793222       0.258112437188       0.227794325800
103 1       1.014858176820       0.515513463884       0.984285630908       0.001733573199      -0.184825118056      -0.309873932135
104 1       2.430600835039       2.767587735643       2.298465290014      -0.324471348165      -0.329292165615       0.093085819544
105 1       1.560433099168       0.625708977544       1.139330870728       0.185390531681       0.051509580680       0.429678519238
106 1       2.135320237065       2.689450388125       2.338128728667       0.424053861837      -0.095744336082      -0.406774573438
107 1       1.990256708701       1.862973609485       0.825225979235      -0.415345056960       0.223113058730      -0.546925199221
108 1       0.457340905760       1.611663576399       2.215952816985       0.173322106612      -0.096044310245      -0.599743912357
109 1       2.430598429614       1.870747979569       2.852966652147      -0.067394350924      -0.407560402268       0.362563444830
110 1       2.232761919713       2.075651429470       2.618619794324      -0.449081697430      -0.061377610668       0.061725483209
111 1       1.594028311274       2.108226418400       0.834866128261       0.383517869016       0.149803557088       0.532214497232
112 1       0.374937542899       1.995315147301       1.916629467020      -0.057527400870      -0.042462656206       0.439293225476
113 1       1.749974854551       1.145569203094       1.230853383802       0.116729938449       0.199856886138      -0.448288790683
114 1       1.663898428688       1.868936600749       0.249813699435       0.158525359602       0.245901063784      -0.254503107321
115 1       2.282297282359       2.095455085097       2.815386240208      -0.187805247866       0.674083368226      -0.276393100718
116 1       2.339991468017       2.176966740780       1.784050005606      -0.508030479407       0.374948950933      -0.452545240974
117 1       2.094820929836       2.108656297215       2.222334147712       0.605582803314      -0.386755944644      -0.671967536337
118 1       2.438658633198       2.460647268320       1.974661999207       0.133278959054      -0.143999983742      -0.515346474055
119 1       1.591078564951       0.313720891414       2.370733136609       0.153321941420       0.626709784001      -0.448602270881
120 1       2.001134845106       1.234766015179       1.243577719747      -0.239452698298       0.374725221557      -0.514759795019
121 1       2.369841909298       2.318104143937       1.964967121650       0.480735100602       0.478848691540       0.434041389000
122 1       2.522717098925       1.918121002454       2.904106833580       0.067134302782       0.739169903443       0.379275816108
123 1       0.621700787775       2.102262479190       1.539079515395      -0.160097317810       0.073075606588       0.192943229847
124 1       0.550886695093       2.083473059132       2.340797164410       0.135420119543       0.354814827724       0.309314401588
125 1       1.813711298767       2.250929711899       1.900020880350      -0.630728950363      -0.753026853672       0.658029220427
126 1       1.907021444015       0.111888990534       2.141008238996       0.154598121769      -0.387600959407       0.275505008659
127 1       2.296052194572       2.299517246506       2.896685991596       0.402076805234       0.362175069538       0.259791042137
128 1       2.406258926017       2.385741717832       2.044630748615       0.558803610839       0.522695748444       0.196893652757
129 1       1.712929180322      -0.160480801554       1.968865194730      -0.141380571453       0.477528858054       0.190651089341
130 1       1.951293117665       2.311671515860       2.746737100493       0.187574857100       0.230712070057       0.640960554672
131 1       0.978317711978       2.054664394242       1.028146132811       0.214974850228      -0.588437786072      -0.237131024485
132 1       2.466457633661       2.327048569369       2.341787429333       0.427419677578      -0.082464596248      -0.058830508820
133 1       2.374213274596       2.555166136217       2.539076335253      -0.661256321728       0.668921173925      -0.255453349264
134 1       1.872009352864       2.268861845119       2.271279790896      -0.674316652621       0.607154723456      -0.923033173619
135 1       1.992933352712       2.234921622408       2.575281339287      -0.234603602366      -0.420351459218       0.435616485235
136 1       2.019734140743       1.313013037618       0.947520376977      -0.262280058122       0.173657630489       0.552451269176
137 1       0.414354237367       2.000757345594       2.047386153780       0.149166288217       0.116405553981      -0.161878488489
138 1       2.281380540414       2.465279139637       2.293697983665       0.283736838114      -0.379818085791      -0.299560179953
139 1       2.425749264919       2.239677303428       2.415507158568      -0.469017573675       0.332878792544      -0.038382438755
140 1       2.128669165559       0.648238086802       2.019499327561      -0.190986911883       0.350616575455      -0.200909348991
141 1       1.722220877682       1.682508863478       0.071280390196      -0.437633545460      -0.371322809553      -0.260877801895
142 1       1.852142078769       2.173975372195       1.515005698261      -0.491214057657      -0.282018615903       0.652397995192
143 1       2.137509869184       0.568647193184       1.568066311695       0.229049272275       0.200450411081       0.109418321755
144 1       2.252436654410       2.191866905526       2.454822401314       0.278341284630       0.563147043051       0.608738524624
145 1       0.609692495631       2.034396086093       2.558266266450      -0.204710088842       0.323969076333      -0.251238006192
146 1       0.311848918008       1.315347819229       1.138239973415       0.023840096879       0.372187690819      -0.047380186519
147 1       2.455228580789       2.460244096532       2.511523917027      -0.526026727241       0.388126420199      -0.225757710210
148 1       0.693264021531       1.879321910207       1.911155370568      -0.106060850946       0.334444971479      -0.059785153097
149 1       0.018256690486       1.865674750369       1.852924801366      -0.186656751641      -0.147946538785      -0.366281901782
150 1       2.148197656469       2.213783563395       2.825794236027       0.187254840117      -0.570691952562      -0.204365587588
151 1       2.843200708131       2.467984352197       2.256289603738      -0.260881249046       0.190623501113      -0.156033561767
152 1       2.333986302478       2.401492356628       2.079686382293      -0.503684251295       0.573162434367      -0.528344996067
153 1       2.107691169967       2.020513900314       2.602902600378       0.475131935219       0.309123445984       0.266742408787
154 1       2.093514183553       1.269541670188       0.983564428342       0.284503128900       0.343255198153       0.452985776991
155 1       1.687245880049       1.830147554911       0.141489682358      -0.282812832382      -0.031798106341       0.146269854240
156 1       1.859279601306       2.249616227669       1.854860725647      -0.428046709842      -0.299929473861       0.683223306602
157 1       2.423740540741       2.249874523664       2.446915456239      -0.132664873526      -0.259349848829       0.565812702980
158 1       1.239540689615       2.028666432416       0.797100283585      -0.268755442651      -0.443748517071       0.185010195060
159 1       1.420157214710       0.679773537140       0.448216519171       0.120275697719       0.064815270860      -0.089935455543
160 1       2.013220444223       0.387504373542       2.226948230394      -0.144735061766       0.305731619783       0.035120368053
