160
Config_type=bulk_gamma_phase Weight=1.0 Lattice="8.503977394 0.000000000 0.000000000 0.000000000 8.503977394 0.000000000 0.000000000 0.000000000 25.511932183" Energy=-1359.16754920 Virial="-72.77610 -0.04113 -19.69051 -0.04113 -73.66025 -2.46450 -19.69051 -2.46450 -71.24336" pbc="T T T" Properties=species:S:1:pos:R:3:forces:R:3
Ga	      1.23333      5.27935     22.44334         0.001562      0.007235      0.006169
Ga	      5.28499      0.85947     13.88433        -0.003601      0.000231     -0.019240
Ga	      7.27488      7.52091      7.50110         0.000291      0.007046      0.004220
Ga	      7.40371      7.24421     16.01286        -0.004118     -0.002301      0.007463
Ga	      5.30896      5.32445      0.99691         0.003788      0.000676     -0.014880
Ga	      3.07943      3.25318      7.31690        -0.000256      0.003393      0.005617
Ga	      0.97057      1.06150      1.09703        -0.001299     -0.000840     -0.009931
Ga	      5.25258      1.03862      5.32392         0.006410      0.011106     -0.004711
Ga	      3.23295      3.01734     15.90617        -0.007573      0.019658      0.020527
Ga	      5.46373      1.13853     22.25370        -0.001843     -0.004484      0.008750
Ga	      3.19407      7.36764     11.69420         0.004266      0.001522      0.001560
Ga	      7.54084      3.25117     20.12102        -0.004401     -0.003971     -0.009105
Ga	      1.03573      5.17778     13.69456         0.007588      0.005290     -0.001931
Ga	      7.44025      3.27662      3.25492        -0.000251      0.007237      0.009976
Ga	      5.17740      5.40866      9.52150        -0.011837      0.003722      0.005054
Ga	      7.47632      7.56187     24.47470         0.001497      0.021503      0.009014
Ga	      3.24158      7.56553     20.22976        -0.003511     -0.000672      0.007955
Ga	      0.93144      1.09158      9.67746         0.013377      0.009674     -0.007861
Ga	      3.27476      7.53988      3.15732         0.001740      0.007708     -0.008057
Ga	      1.19836      1.04434     18.09582         0.035551     -0.011902     -0.015634
Ga	      4.00175      0.18432      8.51485         0.005407     -0.021748     -0.003167
Ga	      6.23016      6.21546     12.73441        -0.024968     -0.027817      0.011307
Ga	      2.19159      2.15498     21.27584         0.008153     -0.025325     -0.005310
Ga	      6.50933      6.40528     21.24221         0.025679     -0.009787      0.007651
Ga	      1.99901      6.50926      8.41821        -0.000599      0.008643     -0.010074
Ga	      8.44578      2.10043      6.33772         0.009124      0.015036     -0.002856
Ga	      2.02609      2.13266      4.28758         0.002417      0.008379     -0.013639
Ga	      0.06387      2.04722     14.85849        -0.002975      0.003291      0.002560
Ga	      0.15863      6.30781     19.08579        -0.009278      0.002012      0.001045
Ga	      6.36977      0.05481      2.13520         0.002902     -0.019955      0.003136
Ga	      6.18888      0.07195     10.69073         0.009182     -0.011122     -0.010274
Ga	      4.22794      2.23076     19.08680         0.004736      0.004867      0.002030
Ga	      6.51150      8.48161     19.15013         0.033480      0.026176     -0.010027
Ga	      6.45471      2.06839     16.98028        -0.004388     -0.010006      0.001399
Ga	      0.16393      2.09148     23.44636         0.013151      0.011539     -0.008279
Ga	      2.07492      8.29312     14.97206         0.004360      0.003027     -0.004249
Ga	      4.06982      6.12852     14.88792         0.010507     -0.003323      0.005397
Ga	      6.32754      4.26774      6.41591         0.020418     -0.008362      0.001903
Ga	      4.28289      6.47562     23.42498        -0.006183      0.000632      0.003596
Ga	      0.09225      4.24944     17.00205         0.001507     -0.007829      0.000406
Ga	      2.12129      4.30775      2.12529        -0.008244     -0.018929     -0.010110
Ga	      4.18327      4.37938     21.20403         0.007591      0.006051     -0.004761
Ga	      4.20080      8.31278     17.06810        -0.006207      0.012290     -0.005400
Ga	      6.42294      4.30248     23.31755         0.003827      0.001651      0.007403
Ga	      8.44248      6.32381     10.59679         0.002629      0.005895     -0.001872
Ga	      8.49275      8.42175     12.78842         0.007013     -0.003179     -0.008970
Ga	      0.01450      4.34916      0.05067        -0.010355      0.019768     -0.001494
Ga	      6.30351      4.12340     14.84731         0.004013     -0.005776      0.015448
Ga	      4.22011      4.25034      4.20250         0.029313     -0.002779      0.011582
Ga	      2.15466      2.06595     12.68938        -0.015667      0.008829     -0.005267
Ga	      2.12111      4.18540     10.65002        -0.006087      0.008636     -0.017387
Ga	      0.04034      6.54386      2.22912         0.001742      0.011504     -0.002439
Ga	      0.20688      8.46326     21.36159         0.002936      0.003327      0.000969
Ga	      4.18525      2.05503      2.01838         0.007720      0.003422     -0.015388
Ga	      6.30161      2.07733     25.46337         0.013180      0.002986     -0.002759
Ga	      8.49423      4.19170      8.50225        -0.018987     -0.000345     -0.014123
Ga	      6.16976      2.19392      8.60232        -0.000049     -0.003570      0.010249
Ga	      4.08642      6.52407      6.32252        -0.003239      0.019357      0.007785
Ga	      6.43419      6.52857      4.31130        -0.000909      0.008608     -0.009374
Ga	      2.21454      6.47977     25.48322         0.001163     -0.002272      0.005995
Ga	      5.23197      3.16364     11.73225        -0.008499     -0.000298      0.003058
Ga	      3.22819      1.07767     24.42403        -0.030142     -0.024579      0.024218
Ga	      3.20365      5.25486     18.06135        -0.021559      0.009618      0.010892
Ga	      1.00358      7.52352      5.31350        -0.011204      0.011583     -0.000947
O	      2.15623      2.16633      2.14726        -0.002394      0.001073      0.000303
O	      6.25422      6.32214      6.33935         0.005986     -0.004908     -0.013272
O	      4.34864      8.42320      6.53175         0.010900     -0.008262     -0.004276
O	      4.37795      0.13086      2.15201        -0.005680     -0.009416      0.003572
O	      8.37217      6.50548      4.17337         0.009816     -0.001184     -0.000258
O	      0.04104      2.25281      4.34681        -0.000650     -0.001929     -0.004025
O	      6.27254      4.21783      8.47614        -0.002055     -0.005428      0.006246
O	      1.90679      4.53239      0.26485         0.002037     -0.010072      0.004367
O	      8.48919      4.42467      2.11629        -0.004108      0.002888     -0.009451
O	      8.20875      4.05489      6.64429         0.009591      0.007646      0.001990
O	      4.36357      2.09371      0.07058        -0.006290     -0.002253     -0.002134
O	      4.07739      6.46826      8.36768         0.003750     -0.005965      0.000369
O	      2.14045      0.07769      4.23901        -0.001297      0.008296      0.007170
O	      6.22285      8.43943      4.14905        -0.000807     -0.005121      0.006964
O	      2.14375      6.53488      6.46645        -0.003700      0.014701     -0.005861
O	      6.31914      2.14560      2.06412        -0.004738     -0.007245     -0.005125
O	      4.25333      4.18108      2.13280        -0.001529     -0.011755      0.003650
O	      4.28552      4.39443      6.25675        -0.005326     -0.004210     -0.001958
O	      8.30850      2.13311      8.50109        -0.010462      0.008986      0.001143
O	      0.03934      6.40192      0.07948         0.000085     -0.004426     -0.000190
O	      8.36428      0.06663      6.39997         0.002067      0.004936     -0.004247
O	      8.36377      8.47223      2.09902         0.001340      0.001699     -0.001381
O	      4.29933      6.32255      4.30747         0.001793     -0.000731     -0.000904
O	      4.18768      2.19852      4.17910         0.001229     -0.006418      0.001978
O	      6.35143      2.18960      6.44179         0.005785      0.002848     -0.000224
O	      2.08365      6.44142      2.10180        -0.003405     -0.004659      0.003227
O	      2.32951      4.08170      3.98416        -0.006185     -0.006315     -0.005395
O	      6.25365      4.38828      4.34285         0.002040     -0.002099     -0.004178
O	      6.50532      0.16387      0.11523        -0.003798      0.002656     -0.004364
O	      2.08856      8.45388      8.69656         0.007159      0.000498      0.013183
O	      6.41953      6.46003      2.18961        -0.001155      0.003607      0.004234
O	      1.92928      2.23793      6.24562         0.003278     -0.001501      0.000848
O	      2.00868      2.20249     10.72375        -0.009921      0.000939      0.001296
O	      6.30356      6.20729     14.80988         0.000052     -0.004923      0.003561
O	      4.17453      8.32046     15.02730         0.003090      0.007482      0.007442
O	      4.29192      8.30490     10.48943         0.004351     -0.010850      0.001747
O	      8.35563      6.38443     12.65066        -0.000802     -0.006307      0.008230
O	      0.19852      1.79281     12.99268        -0.003619     -0.002679      0.011948
O	      6.67113      3.93406     16.72857        -0.007347     -0.007636     -0.003612
O	      2.05733      4.37511      8.50340        -0.007855     -0.007777     -0.001352
O	      0.15250      4.44651     10.36095        -0.003685      0.001199     -0.001110
O	      0.01619      4.07667     14.88715         0.001758     -0.002995      0.000634
O	      4.22081      2.10261      8.31197        -0.008745     -0.007181     -0.008443
O	      4.14459      6.39472     16.87721        -0.010896      0.002227      0.008774
O	      2.06591      8.46559     12.80797        -0.007340     -0.006515      0.005456
O	      6.43167      8.34361     12.70598         0.013652     -0.002710     -0.007682
O	      2.14379      6.35730     14.68987         0.017835     -0.010065     -0.010940
O	      6.17540      2.01856     10.54703        -0.010703      0.003091      0.001131
O	      4.16913      4.30046     10.63863        -0.006786      0.004871      0.001799
O	      4.34565      4.21232     15.00727        -0.000718     -0.001741      0.006278
O	      0.03430      2.05832     16.90021        -0.003924     -0.001337      0.003436
O	      8.47084      6.40712      8.53216         0.006163      0.005773     -0.000722
O	      0.05308      8.37175     14.88872         0.011389     -0.002061     -0.002331
O	      8.31565      8.37415     10.74007         0.005394      0.005787     -0.001270
O	      4.33084      6.47480     12.91302         0.004429      0.004354      0.001272
O	      4.22111      1.97770     12.80947        -0.000364     -0.004604      0.004384
O	      6.47189      1.98640     14.91145        -0.003712      0.002092     -0.005086
O	      2.02919      6.29544     10.56518        -0.004305     -0.000659      0.008210
O	      2.04581      4.05589     12.61094        -0.004169      0.007223     -0.000716
O	      6.26009      4.27315     12.88535        -0.004230     -0.006023      0.002802
O	      6.21300      0.11144      8.64468         0.002296     -0.008033      0.005043
O	      2.26988      0.07494     16.90349         0.007546      0.012620      0.009824
O	      6.39047      6.40990     10.68153         0.002003     -0.011081      0.005088
O	      2.13564      1.91627     14.80201        -0.002149      0.008868      0.001896
O	      2.31181      2.01010     19.25570        -0.002001      0.000776     -0.001766
O	      6.43249      6.41390     23.28849         0.001231     -0.005327      0.000129
O	      4.38952      0.04245     23.33727        -0.000972     -0.002368      0.000379
O	      4.43908      0.06364     19.06213        -0.005017      0.000515      0.001724
O	      0.12043      6.44749     21.30082        -0.003443      0.005558     -0.000702
O	      0.12112      2.10905     21.32062        -0.001637      0.000832      0.006511
O	      6.49210      4.21704     25.41434         0.001003      0.004004      0.000193
O	      2.13732      4.10212     16.99189        -0.000200      0.004690     -0.005459
O	      0.03237      4.32578     18.98693         0.005990     -0.002219     -0.007743
O	      8.46630      4.20433     23.49711        -0.003217     -0.002402     -0.001373
O	      4.41114      1.97854     17.08815        -0.000641     -0.007389     -0.000553
O	      4.20911      6.34773     25.40554         0.000070      0.003724      0.003523
O	      2.11856      0.14295     21.23153        -0.005070     -0.011538      0.003341
O	      6.57610      0.02645     21.18588        -0.004589      0.001529     -0.003046
O	      2.30374      6.37232     23.52402        -0.003347     -0.005132     -0.013801
O	      6.39321      2.03000     19.04549         0.002546      0.000866     -0.002780
O	      4.23323      4.17392     19.25278        -0.001481      0.000556     -0.013034
O	      4.56256      4.54917     23.08740         0.002464     -0.005596     -0.000052
O	      8.44253      2.27920     25.46135         0.000959      0.003015     -0.007031
O	      8.49562      6.21525     17.10589        -0.000492     -0.004956      0.001239
O	      8.40148      0.17059     23.28073        -0.009070      0.002080     -0.003262
O	      0.05956      8.47003     19.20886        -0.000804      0.005872     -0.004559
O	      4.41432      6.45022     21.27410        -0.000063      0.004677     -0.006118
O	      4.30719      2.23265     21.15515         0.006666      0.007277      0.000448
O	      6.50260      2.28169     23.43736        -0.005350     -0.001018     -0.000675
O	      2.18230      6.41052     19.16673        -0.012777      0.000307      0.004779
O	      2.26090      4.13962     21.38245         0.001126      0.005457      0.010933
O	      6.49188      4.36963     21.27443        -0.006171      0.000337     -0.006793
O	      6.34006      0.00315     17.08699         0.001165     -0.003015      0.003408
O	      2.10496      0.01768      0.01195        -0.009549      0.000887      0.012200
O	      6.73182      6.59817     19.37458        -0.004634      0.000033      0.013721
O	      2.07997      2.05891     23.28653        -0.004658     -0.011273      0.002413
