ITEM: TIMESTEP
0
ITEM: NUMBER OF ATOMS
160
ITEM: BOX BOUNDS pp pp pp
0.0000000000000000e+00 8.3154572540000000e+00
0.0000000000000000e+00 8.3154572540000000e+00
0.0000000000000000e+00 2.4946371761999998e+01
ITEM: ATOMS id type c_pe_atom
1 2      -9.578663965883
2 2      -8.539558674301
3 2      -8.615951590865
4 2      -9.489855786067
5 2      -9.560477617920
6 2      -9.599155094345
7 2      -8.680194530551
8 2      -8.893366011048
9 2      -8.663106166861
10 2      -8.568737464483
11 2      -8.749635309966
12 2      -9.598163582145
13 2      -9.588208984381
14 2      -9.519435273567
15 2      -8.596273749615
16 2      -9.024719150758
17 2      -8.690015462357
18 2      -9.529056815710
19 2      -8.682496666100
20 2      -8.974748348954
21 2      -5.021931673492
22 2      -4.271309848453
23 2      -5.035364016755
24 2      -3.521850456332
25 2      -4.222928420556
26 2      -5.732604014245
27 2      -5.742187306932
28 2      -3.427813731646
29 2      -5.886897742455
30 2      -4.697885292070
31 2      -4.313782002832
32 2      -4.392551435180
33 2      -3.907235133673
34 2      -3.850315541094
35 2      -4.203048043856
36 2      -3.689379237426
37 2      -5.191747775797
38 2      -3.874600732824
39 2      -5.733885710481
40 2      -5.769716529711
41 2      -4.836593699381
42 2      -5.177955198290
43 2      -4.448731362535
44 2      -4.072779937374
45 2      -3.828809187570
46 2      -3.799541692790
47 2      -4.032609840644
48 2      -5.129315262564
49 2      -4.063214074051
50 2      -5.570579383084
51 2      -5.706532743254
52 2      -4.031882872789
53 2      -3.657513969248
54 2      -4.092027219151
55 2      -4.108130077361
56 2      -4.774886982261
57 2      -4.253861792289
58 2      -4.356241071993
59 2      -4.126196009246
60 2      -5.768040918233
61 2      -9.564258603019
62 2      -9.370010927899
63 2      -9.311240697299
64 2      -9.444378244595
65 1      -7.477691102915
66 1      -7.689104820322
67 1      -3.960155811405
68 1      -3.609328128925
69 1      -3.174818008481
70 1      -3.556303154438
71 1      -7.471661726673
72 1      -3.458900830360
73 1      -7.461545773910
74 1      -3.402750064671
75 1      -3.216476212712
76 1      -8.136098507705
77 1      -4.365435813071
78 1      -4.105933467782
79 1      -3.217522966020
80 1      -8.652768510105
81 1      -7.433549507791
82 1      -7.431617500577
83 1      -7.714742894289
84 1      -7.969544856747
85 1      -3.917684690668
86 1      -3.713088704734
87 1      -7.409731514777
88 1      -7.982087851420
89 1      -8.006625087293
90 1      -7.551698898262
91 1      -3.449076004589
92 1      -7.105449735429
93 1      -4.091898414539
94 1      -3.361816950584
95 1      -8.770092227252
96 1      -3.452414189813
97 1      -3.503465948162
98 1      -8.161647406203
99 1      -8.093317284674
100 1      -3.916127411252
101 1      -7.172438087964
102 1      -3.678664877914
103 1      -4.113825929989
104 1      -7.616140845244
105 1      -3.488534106532
106 1      -7.452189062949
107 1      -3.449532317620
108 1      -3.588551558546
109 1      -7.940372251644
110 1      -7.333709803991
111 1      -3.498602964957
112 1      -3.207801664885
113 1      -4.110426986781
114 1      -3.390387833637
115 1      -7.606498639434
116 1      -7.519481887842
117 1      -7.829544295189
118 1      -7.476046649474
119 1      -4.046536051793
120 1      -4.357186946658
121 1      -7.692942954572
122 1      -8.098484729369
123 1      -3.715567881820
124 1      -3.113193371837
125 1      -8.015109960049
126 1      -3.647392171316
127 1      -7.810091316197
128 1      -7.900971620757
129 1      -4.177064583389
130 1      -7.564568555250
131 1      -4.175942204036
132 1      -7.556503178743
133 1      -7.809757628456
134 1      -8.740578025114
135 1      -7.162211442022
136 1      -4.409964225068
137 1      -3.416678824994
138 1      -7.180968879592
139 1      -7.660693027866
140 1      -3.444061307542
141 1      -3.764169327170
142 1      -7.641241443175
143 1      -3.543497399174
144 1      -7.410554115357
145 1      -2.998967057865
146 1      -4.103941185220
147 1      -7.536785352518
148 1      -3.494615946302
149 1      -3.555083951550
150 1      -7.894991538904
151 1      -7.539317196725
152 1      -8.166374114919
153 1      -7.344512086251
154 1      -4.120151817433
155 1      -3.274209229520
156 1      -7.252351496229
157 1      -7.329352947935
158 1      -4.299337767542
159 1      -3.630985756657
160 1      -3.625289047655
