ITEM: TIMESTEP
0
ITEM: NUMBER OF ATOMS
30
ITEM: BOX BOUNDS xy xz yz pp pp pp
-2.5267940850000001e+00 5.0535881710000004e+00 -2.5267940850000001e+00
0.0000000000000000e+00 4.3765361530000000e+00 0.0000000000000000e+00
0.0000000000000000e+00 1.3604621138000001e+01 0.0000000000000000e+00
ITEM: ATOMS id type v_vir_xx v_vir_yy v_vir_zz v_vir_xy v_vir_xz v_vir_yz
1 2      -3.809013423168      -3.809049755326      -2.815430199214      -0.000027399869       0.000021551384      -0.000008227700
2 2      -3.809120339726      -3.809066458495      -2.815758955475       0.000022507467      -0.000001643060       0.000023925301
3 2      -3.809024716072      -3.809071576511      -2.815455552591      -0.000009495282       0.000029616525      -0.000018235714
4 2      -3.809096350521      -3.809028093745      -2.815572059517       0.000000487203      -0.000033072144      -0.000015336252
5 2      -3.809170436530      -3.809146221900      -2.815782673999       0.000029571413       0.000013948739       0.000015534698
6 2      -3.809022616619      -3.809084252934      -2.815548271576      -0.000027361394      -0.000045560007      -0.000018230194
7 2      -3.809184056820      -3.809116012445      -2.815791457210       0.000037075244       0.000015228682       0.000012046972
8 2      -3.809020493181      -3.809074257072      -2.815442741898      -0.000028780596      -0.000012371717      -0.000018985599
9 2      -3.809023473455      -3.809006204209      -2.815555714920       0.000034520341       0.000015157845      -0.000019835044
10 2      -3.809036979806      -3.809059972752      -2.815462634156      -0.000014322475      -0.000008695719      -0.000019330925
11 2      -3.809029174391      -3.809050654280      -2.815535676624      -0.000024516594       0.000012169131      -0.000002614354
12 2      -3.809143968729      -3.809122861857      -2.815751356974       0.000007734760      -0.000006331798       0.000026632028
13 1       1.929802702838       2.775754360640       1.745014984307      -0.732675867088       0.537269906232       0.310164681534
14 1       3.198766201676       1.506787932843       1.745012231609       0.000027286977      -0.000002794282      -0.620345972903
15 1       1.929751500642       2.775772929288       1.745032378108       0.732654467026      -0.537240292410       0.310166170068
16 1       1.929825889638       2.775771630044       1.745024637933      -0.732666108122       0.537252974986       0.310168441493
17 1       1.929757778070       2.775802865512       1.745035079821       0.732655226470      -0.537244532302       0.310190490089
18 1       3.198754196736       1.506781068196       1.745037099522       0.000049846570      -0.000021211919      -0.620359132543
19 1       1.929730391929       2.775819253762       1.745056476524      -0.732643600560       0.537243448841       0.310188300930
20 1       3.198787455289       1.506802905969       1.745022286833      -0.000056640146       0.000020956111      -0.620357177491
21 1       1.929791135509       2.775779919112       1.745034949246       0.732655977893      -0.537260638975       0.310172093816
22 1       1.929700346882       2.775754874764       1.745038182099      -0.732633533869       0.537244854107       0.310182451214
23 1       1.929773583580       2.775742502674       1.745041005917       0.732656967908      -0.537271482911       0.310172818535
24 1       3.198778046570       1.506744349711       1.745033662479      -0.000029243346       0.000015002691      -0.620351996125
25 1       1.929731571855       2.775718401697       1.745031308535      -0.732676494792       0.537250743563       0.310173060749
26 1       3.198691629041       1.506698147634       1.745022476998       0.000036647227      -0.000021081607      -0.620344006254
27 1       1.929691346300       2.775730555791       1.745015122393       0.732645082770      -0.537245289417       0.310189171528
28 1       1.929755866589       2.775769949065       1.745017118601      -0.732638718653       0.537247668887       0.310173722813
29 1       1.929783208733       2.775757895719       1.745024175210       0.732667655484      -0.537246965248       0.310160644700
30 1       3.198796239712       1.506802868597       1.745015742133      -0.000028933748       0.000008709314      -0.620357888240
