ITEM: TIMESTEP
0
ITEM: NUMBER OF ATOMS
30
ITEM: BOX BOUNDS xy xz yz pp pp pp
-2.5267940850000001e+00 5.0535881710000004e+00 -2.5267940850000001e+00
0.0000000000000000e+00 4.3765361530000000e+00 0.0000000000000000e+00
0.0000000000000000e+00 1.3604621138000001e+01 0.0000000000000000e+00
ITEM: ATOMS id type c_pe_atom
1 2      -4.076006805510
2 2      -4.075798723771
3 2      -4.076024541118
4 2      -4.075949782657
5 2      -4.075678711176
6 2      -4.075901038388
7 2      -4.075744139162
8 2      -4.075998557536
9 2      -4.075993929991
10 2      -4.076022556896
11 2      -4.075886170509
12 2      -4.075682366107
13 1      -7.183407540060
14 1      -7.183382633424
15 1      -7.183323481291
16 1      -7.183503823136
17 1      -7.183503776991
18 1      -7.183493836020
19 1      -7.183488156898
20 1      -7.183517814158
21 1      -7.183503192707
22 1      -7.183534630094
23 1      -7.183604949023
24 1      -7.183567130132
25 1      -7.183542306129
26 1      -7.183500286682
27 1      -7.183569996322
28 1      -7.183372312360
29 1      -7.183343388777
30 1      -7.183420810367
