ITEM: TIMESTEP
0
ITEM: NUMBER OF ATOMS
160
ITEM: BOX BOUNDS pp pp pp
0.0000000000000000e+00 8.4420705480000002e+00
0.0000000000000000e+00 8.4420705480000002e+00
0.0000000000000000e+00 2.5326211644000001e+01
ITEM: ATOMS id type c_pe_atom
1 2     -10.689036390118
2 2      -9.738653037120
3 2      -9.831826610194
4 2     -10.729100011165
5 2     -10.791702246782
6 2     -10.702033458240
7 2      -9.842134327095
8 2      -9.952577617254
9 2      -9.741732116194
10 2      -9.798575721697
11 2      -9.838643461206
12 2     -10.859971111096
13 2     -10.713637911097
14 2     -10.766773437306
15 2      -9.800161977925
16 2     -10.131835160425
17 2      -9.815958616625
18 2     -10.634682943496
19 2      -9.827169903378
20 2     -10.060991536629
21 2      -6.292408225726
22 2      -5.663410979821
23 2      -6.123561484623
24 2      -4.931546460059
25 2      -5.626022909640
26 2      -6.716301515075
27 2      -6.780688425689
28 2      -4.800029804689
29 2      -6.993662587207
30 2      -5.836786501772
31 2      -5.615052176611
32 2      -5.813733575837
33 2      -5.193257983056
34 2      -5.227832835772
35 2      -5.660984460704
36 2      -5.090027092912
37 2      -6.398294278395
38 2      -5.256638743020
39 2      -6.780190774604
40 2      -6.761912364538
41 2      -6.111243921060
42 2      -6.414707621328
43 2      -5.684278517417
44 2      -5.421083561893
45 2      -5.207257432492
46 2      -5.156100382632
47 2      -5.315206501460
48 2      -6.348754600114
49 2      -5.340729682495
50 2      -6.515464347625
51 2      -6.655652107095
52 2      -5.480537657267
53 2      -5.079955398378
54 2      -5.563419390711
55 2      -5.621913699988
56 2      -6.028709698106
57 2      -5.655428164350
58 2      -5.669683279343
59 2      -5.641384960244
60 2      -6.781515792825
61 2     -10.447071926203
62 2     -10.314418318544
63 2     -10.155856020931
64 2     -10.361020579380
65 1      -6.467169263552
66 1      -6.718502745755
67 1      -3.282390689453
68 1      -2.812014759752
69 1      -2.638463466508
70 1      -2.923451077191
71 1      -6.529269455298
72 1      -2.828115472442
73 1      -6.609816402150
74 1      -2.776270656041
75 1      -2.675038444103
76 1      -7.150454561245
77 1      -3.576719294282
78 1      -3.346279915471
79 1      -2.740373295359
80 1      -7.561993517582
81 1      -6.572318279564
82 1      -6.467023856317
83 1      -6.743524196036
84 1      -6.889263998048
85 1      -3.237730938356
86 1      -2.899318215917
87 1      -6.438032259708
88 1      -6.891246759677
89 1      -6.949159301716
90 1      -6.545288917865
91 1      -2.816817064076
92 1      -6.180977699494
93 1      -3.372586517701
94 1      -2.760057518553
95 1      -7.656793901660
96 1      -2.809930334551
97 1      -2.850467385955
98 1      -7.222376537180
99 1      -7.145158034733
100 1      -3.221636211988
101 1      -6.241196180842
102 1      -3.114024287343
103 1      -3.528955729094
104 1      -6.648940952397
105 1      -2.859522969501
106 1      -6.487798478704
107 1      -2.861296862823
108 1      -3.085114918003
109 1      -6.893457311117
110 1      -6.437824508385
111 1      -2.884799888039
112 1      -2.729124743717
113 1      -3.401275740066
114 1      -2.668000430767
115 1      -6.550658044487
116 1      -6.576855094098
117 1      -6.854976379428
118 1      -6.494572581084
119 1      -3.355865202088
120 1      -3.682797302800
121 1      -6.797752364316
122 1      -7.040676168977
123 1      -3.010224573959
124 1      -2.511151547690
125 1      -7.054628764269
126 1      -3.024942828090
127 1      -6.833524153911
128 1      -6.861453274143
129 1      -3.482567849899
130 1      -6.523596944733
131 1      -3.461524152344
132 1      -6.557243072372
133 1      -6.752820379766
134 1      -7.656503404423
135 1      -6.237834932592
136 1      -3.646495123141
137 1      -2.885678366992
138 1      -6.241909698626
139 1      -6.641700400207
140 1      -2.827367589774
141 1      -2.948915505111
142 1      -6.720420083881
143 1      -2.841059505155
144 1      -6.491359684526
145 1      -2.421710842952
146 1      -3.511304306746
147 1      -6.545008631418
148 1      -2.850668491741
149 1      -2.920843892095
150 1      -6.816872901775
151 1      -6.524940825239
152 1      -7.190935923966
153 1      -6.417029413555
154 1      -3.376187903743
155 1      -2.556546333590
156 1      -6.329565348484
157 1      -6.414129134513
158 1      -3.527513062608
159 1      -3.016026025326
160 1      -3.110571010611
