ITEM: TIMESTEP
0
ITEM: NUMBER OF ATOMS
40
ITEM: BOX BOUNDS pp pp pp
0.0000000000000000e+00 8.6612970950000001e+00
0.0000000000000000e+00 5.0437451920000003e+00
0.0000000000000000e+00 9.2678423920000004e+00
ITEM: ATOMS id type x y z fx fy fz
1 2       1.362860000000       1.557330000000       8.224810000000      -0.095662963162       0.199953514947      -0.065138379956
2 2       3.075110000000       4.079200000000       8.224820000000       0.095652960951       0.199977183487      -0.065241114512
3 2       5.694890000000       0.901780000000       7.398750000000       0.102741905201      -0.108609653631      -0.043687831554
4 2       7.404370000000       3.423650000000       7.398750000000      -0.102806542055      -0.108478432674      -0.043677589202
5 2       4.654690000000       3.414270000000       5.526870000000      -0.147948614445      -0.026419001348      -0.027808498485
6 2       1.455980000000       3.461580000000       5.648670000000      -0.155371299460       0.023159831153      -0.252250122557
7 2       2.981980000000       0.939710000000       5.648670000000       0.155412999182       0.023162943803      -0.252230922377
8 2       8.444580000000       0.892390000000       5.526880000000       0.147876933779      -0.026255058393      -0.028012768064
9 2       1.364240000000       1.619920000000       2.764790000000       0.102622737510       0.107419334105      -0.042215068546
10 2       3.073740000000       4.141790000000       2.764800000000      -0.102755909955       0.107417977799      -0.042278247260
11 2       5.693050000000       0.964890000000       3.590910000000      -0.096192015897      -0.200577839240      -0.066770555605
12 2       7.406210000000       3.486760000000       3.590900000000       0.096324405029      -0.200594348032      -0.066658110560
13 2       4.114370000000       1.629810000000       0.893160000000       0.147304161866       0.024736811563      -0.028496464093
14 2       5.786480000000       4.104130000000       1.014520000000      -0.154647588122      -0.024308662939      -0.250979618987
15 2       7.312790000000       1.582260000000       1.014510000000       0.154576547920      -0.024398178134      -0.250898127388
16 2       0.323600000000       4.151680000000       0.893160000000      -0.147296332419       0.024873480110      -0.028412915789
17 1       7.232840000000       1.761490000000       4.383140000000       0.085865531373      -0.067156159552      -0.037177105481
18 1       0.023390000000       0.761810000000       0.016480000000      -0.029857673977       0.064882344868       0.135544820457
19 1       7.271640000000       0.111050000000       6.849370000000       0.143715460850      -0.066068074255       0.063327159368
20 1       7.208670000000       4.921660000000       2.118120000000       0.041634640580       0.223976300784       0.078804589077
21 1       5.866420000000       4.283360000000       4.383130000000      -0.085790361619      -0.067193314917      -0.037199592232
22 1       7.336180000000       3.303800000000       9.253890000000      -0.015418316543       0.004599324304       0.036244888307
23 1       5.827620000000       2.632920000000       6.849380000000      -0.143790796684      -0.065902681608       0.063173170342
24 1       5.890600000000       2.399780000000       2.118120000000      -0.041644937964       0.224123577018       0.078843985364
25 1       1.432190000000       1.739940000000       4.620090000000       0.015972848232      -0.005162496824       0.035402251838
26 1       2.902490000000       0.760740000000       9.017380000000       0.086576363187       0.065790627640      -0.038261234055
27 1       1.560590000000       0.121520000000       6.752580000000      -0.044376252957      -0.220169137009       0.078002095774
28 1       1.496930000000       4.932360000000       2.215680000000      -0.145433917308       0.067550454637       0.063114709725
29 1       0.084310000000       4.282290000000       4.650570000000       0.027909504361      -0.066321451041       0.134666107922
30 1       1.535470000000       3.282610000000       9.017380000000      -0.086477803637       0.065850602424      -0.038249956218
31 1       0.163430000000       2.407430000000       6.799600000000      -0.082809546198       0.065996784488       0.114396149433
32 1       8.605020000000       2.635940000000       2.165780000000       0.082797429990      -0.063766258952       0.113310691635
33 1       4.353660000000       1.760410000000       4.650580000000      -0.027955598338      -0.066172513573       0.134675392381
34 1       5.763080000000       0.781930000000       9.253890000000       0.015459104817       0.004525469213       0.036214540519
35 1       4.274530000000       4.929300000000       6.799590000000       0.082929852862       0.066058024250       0.114586520748
36 1       4.494250000000       0.114070000000       2.165780000000      -0.082824429728      -0.063835599928       0.113346810512
37 1       3.005780000000       4.261810000000       4.620100000000      -0.016002274909      -0.005200572437       0.035247350152
38 1       4.414580000000       3.283680000000       0.016480000000       0.029896581213       0.064953598396       0.135604725265
39 1       2.877370000000       2.643390000000       6.752590000000       0.044330718973      -0.220186792688       0.077952898137
40 1       2.941050000000       2.410480000000       2.215680000000       0.145462487500       0.067768042186       0.063185365968
