ITEM: TIMESTEP
0
ITEM: NUMBER OF ATOMS
160
ITEM: BOX BOUNDS pp pp pp
0.0000000000000000e+00 8.4044863139999997e+00
0.0000000000000000e+00 8.4044863139999997e+00
0.0000000000000000e+00 2.5213458942999999e+01
ITEM: ATOMS id type c_pe_atom
1 2      -4.659353264589
2 2      -4.477887578319
3 2      -4.474868107238
4 2      -4.621729582152
5 2      -4.610413749566
6 2      -4.677449734878
7 2      -4.529960599366
8 2      -4.480692012030
9 2      -4.506134797622
10 2      -4.476647545408
11 2      -4.464324106304
12 2      -4.610027092420
13 2      -4.660706756327
14 2      -4.600870073741
15 2      -4.473944636061
16 2      -4.493353490009
17 2      -4.545695001784
18 2      -4.667998155003
19 2      -4.530288021522
20 2      -4.491965339128
21 2      -5.015899712524
22 2      -4.951634314597
23 2      -5.140916865055
24 2      -4.808317539844
25 2      -4.949791447915
26 2      -5.248228225385
27 2      -5.222550685238
28 2      -4.773491322431
29 2      -5.209387516874
30 2      -5.071573383841
31 2      -4.947631338463
32 2      -4.935015390925
33 2      -4.902957847042
34 2      -4.861510896321
35 2      -4.905031767318
36 2      -4.841547880282
37 2      -5.082040440567
38 2      -4.880250389943
39 2      -5.212989278828
40 2      -5.227010393665
41 2      -4.942622071477
42 2      -5.036740837900
43 2      -4.954826968479
44 2      -4.901410242344
45 2      -4.869317873004
46 2      -4.848986532255
47 2      -4.921160939035
48 2      -5.079644254088
49 2      -4.918541835682
50 2      -5.231050273025
51 2      -5.247777419280
52 2      -4.909413028024
53 2      -4.830666923947
54 2      -4.912726965788
55 2      -4.905275693912
56 2      -4.901151515387
57 2      -4.953751172497
58 2      -4.943408016828
59 2      -4.899752170966
60 2      -5.217406382774
61 2      -4.850445029511
62 2      -4.806209496761
63 2      -4.813993531639
64 2      -4.825968125161
65 1     -10.989156162787
66 1     -11.046305658261
67 1     -10.948990259801
68 1     -10.985707436362
69 1     -10.965127752908
70 1     -10.833620742176
71 1     -10.969867389523
72 1     -10.635751383814
73 1     -10.925559212134
74 1     -10.624552939070
75 1     -10.931840119567
76 1     -10.908929947613
77 1     -11.129137058074
78 1     -10.935489415781
79 1     -10.939356703743
80 1     -10.874733199804
81 1     -10.920815983853
82 1     -11.009155213465
83 1     -10.909414634462
84 1     -10.949596391424
85 1     -11.157015293569
86 1     -10.989760131942
87 1     -11.019507708831
88 1     -10.937519214573
89 1     -10.933107270188
90 1     -10.986527333800
91 1     -10.633797599028
92 1     -11.022772754989
93 1     -10.932278840126
94 1     -10.991698370754
95 1     -10.871369149552
96 1     -10.838974260831
97 1     -10.837797310466
98 1     -10.834199951912
99 1     -10.923148288045
100 1     -10.930942426304
101 1     -11.009245966244
102 1     -10.623084693163
103 1     -10.587316791547
104 1     -10.931819103506
105 1     -10.629910902550
106 1     -10.940459452664
107 1     -10.975933281172
108 1     -10.893240242953
109 1     -10.957474284395
110 1     -11.056627961562
111 1     -10.997982952275
112 1     -10.928941842819
113 1     -11.142202963457
114 1     -10.999212791365
115 1     -10.969852142887
116 1     -10.960031252655
117 1     -10.973295567843
118 1     -11.006535476966
119 1     -10.955977351590
120 1     -11.144296486841
121 1     -10.951867215121
122 1     -10.944728920263
123 1     -10.843794901082
124 1     -10.939477321754
125 1     -10.911629255320
126 1     -11.020900725982
127 1     -11.032081107524
128 1     -11.003059925504
129 1     -10.941789733898
130 1     -10.961429834738
131 1     -11.126615539766
132 1     -11.028806307581
133 1     -10.964074818736
134 1     -10.876129347384
135 1     -11.011849225679
136 1     -11.109343417825
137 1     -10.843786109630
138 1     -10.998750284699
139 1     -11.040752547943
140 1     -10.848539023728
141 1     -10.977132593672
142 1     -10.990522275378
143 1     -10.859723312136
144 1     -10.996967024227
145 1     -10.944354852734
146 1     -10.584035581172
147 1     -11.016738328417
148 1     -10.863950912584
149 1     -11.047745878113
150 1     -10.944845994542
151 1     -10.969129619288
152 1     -10.896566878606
153 1     -11.053304257868
154 1     -11.135808591006
155 1     -10.892308152178
156 1     -10.909637949720
157 1     -11.009811975809
158 1     -11.129495920868
159 1     -10.632107801692
160 1     -10.870942649481
