160
Config_type=bulk_gamma_phase Weight=1.0 Lattice="8.404486314 0.000000000 0.000000000 0.000000000 8.404486314 0.000000000 0.000000000 0.000000000 25.213458943" Energy=-1360.59275820 Virial="-18.26401 0.10167 -19.87238 0.10167 -19.05673 -2.30429 -19.87238 -2.30429 -14.98919" pbc="T T T" Properties=species:S:1:pos:R:3:forces:R:3
Ga	      1.21889      5.21556     22.17604         0.007562      0.030344     -0.012986
Ga	      5.22128      0.84987     13.72511         0.000806     -0.010704     -0.007043
Ga	      7.18311      7.42961      7.41655         0.002680      0.013023     -0.012124
Ga	      7.31416      7.16072     15.82844         0.021237     -0.005103      0.011612
Ga	      5.24498      5.26868      0.98556        -0.002191     -0.014384      0.012663
Ga	      3.04240      3.21687      7.23645         0.001052      0.000697      0.012060
Ga	      0.95538      1.05210      1.09283        -0.004590      0.000864     -0.002009
Ga	      5.18886      1.03225      5.26310         0.010932      0.011788     -0.007901
Ga	      3.19505      2.97802     15.70968        -0.024744      0.001028      0.017387
Ga	      5.40375      1.12150     21.99177        -0.019896     -0.000636      0.009870
Ga	      3.14941      7.27884     11.55651         0.004051     -0.004772      0.001084
Ga	      7.45174      3.20704     19.88563        -0.006316      0.015791     -0.004595
Ga	      1.02272      5.11790     13.53343         0.007434     -0.020015      0.017434
Ga	      7.35363      3.23089      3.21717        -0.000877      0.016067      0.001786
Ga	      5.11382      5.35147      9.40521         0.034570     -0.011035      0.014027
Ga	      7.38678      7.46789     24.19115        -0.004780      0.000568      0.013770
Ga	      3.20584      7.47957     20.00287         0.001791      0.001484      0.007129
Ga	      0.91927      1.07862      9.55893        -0.015555      0.010266     -0.021672
Ga	      3.23821      7.45150      3.11148        -0.007250      0.008916     -0.002883
Ga	      1.18274      1.03795     17.88646         0.002553     -0.000979      0.000723
Ga	      3.94571      0.19020      8.41656         0.004057     -0.021925     -0.015382
Ga	      6.16011      6.13760     12.58539        -0.019163      0.002673      0.002707
Ga	      2.16911      2.14060     21.02508        -0.004077     -0.018942      0.002738
Ga	      6.43141      6.32042     20.97915         0.012922      0.010663      0.037583
Ga	      1.96923      6.42333      8.31484         0.003194      0.017704      0.007833
Ga	      8.35460      2.06992      6.26532         0.009500      0.001339      0.012667
Ga	      2.00329      2.10432      4.23997        -0.005287     -0.008639     -0.009797
Ga	      0.05311      2.02376     14.67325        -0.008129     -0.010045     -0.009966
Ga	      0.16464      6.23055     18.86454         0.003545      0.003941      0.015212
Ga	      6.29167      0.05475      2.11104         0.021305     -0.016782     -0.015799
Ga	      6.11924      0.07197     10.56773        -0.004208      0.006672     -0.008604
Ga	      4.18865      2.20860     18.86090        -0.012615     -0.015657      0.023500
Ga	      6.43549      8.37016     18.91731         0.014177      0.016681      0.003287
Ga	      6.38068      2.05471     16.79055        -0.004592      0.015251     -0.012251
Ga	      0.16243      2.07244     23.17013        -0.011851      0.012855     -0.025443
Ga	      2.04247      8.19468     14.80135         0.015829     -0.021670     -0.007621
Ga	      4.02406      6.05258     14.71422         0.022789     -0.003112     -0.007471
Ga	      6.26840      4.21932      6.32911         0.007759     -0.009271     -0.002381
Ga	      4.22775      6.40818     23.15207         0.000045      0.005902     -0.014391
Ga	      0.09832      4.20410     16.80604        -0.005566     -0.012804      0.003505
Ga	      2.09149      4.25392      2.10032         0.006138     -0.013864      0.004087
Ga	      4.14843      4.32422     20.95791         0.002878     -0.001991     -0.003650
Ga	      4.15551      8.21371     16.87072         0.014021     -0.008139     -0.009699
Ga	      6.33161      4.25659     23.05797         0.007853     -0.009547      0.011277
Ga	      8.34028      6.23414     10.48185         0.020032      0.007201     -0.009712
Ga	      8.39009      8.33222     12.63057        -0.007499      0.020876      0.000997
Ga	      0.02547      4.29473      0.04356         0.008623     -0.004299     -0.016756
Ga	      6.23925      4.07988     14.68107         0.015201     -0.014234      0.005667
Ga	      4.15822      4.20700      4.15880         0.022416     -0.001468      0.025351
Ga	      2.13351      2.04187     12.53521         0.011036      0.015398      0.001073
Ga	      2.10165      4.12858     10.52142        -0.012108      0.005745     -0.019664
Ga	      0.04120      6.46025      2.20337        -0.022673     -0.000161      0.002428
Ga	      0.20339      8.36327     21.11378         0.001075      0.005902     -0.014394
Ga	      4.13800      2.04386      1.99191         0.003685      0.008682     -0.012688
Ga	      6.22670      2.05983     25.16417         0.001804     -0.007428      0.015118
Ga	      8.38114      4.15033      8.40251        -0.003430      0.021048     -0.000422
Ga	      6.10606      2.17139      8.50603        -0.002766     -0.008945     -0.003675
Ga	      4.03537      6.44304      6.24674        -0.002972      0.032557      0.006424
Ga	      6.36091      6.44736      4.25812        -0.010462     -0.010015     -0.017582
Ga	      2.19042      6.40642     25.18542        -0.016343      0.008499     -0.020766
Ga	      5.18165      3.13135     11.60025        -0.003864     -0.011967     -0.016231
Ga	      3.18742      1.07485     24.14021        -0.008901     -0.003392      0.009384
Ga	      3.17844      5.19127     17.85228        -0.010671     -0.003015      0.005207
Ga	      0.99017      7.42440      5.24928         0.010434      0.015278     -0.005142
O	      2.12835      2.14943      2.12642         0.001241      0.005965      0.003966
O	      6.17338      6.25213      6.26659        -0.002728     -0.006914     -0.004531
O	      4.27121      8.33573      6.45008         0.005847     -0.009585      0.002129
O	      4.32201      0.12835      2.09986        -0.001046      0.005345      0.002305
O	      8.28344      6.39123      4.13282        -0.008596     -0.003013     -0.000531
O	      0.03308      2.19427      4.28938         0.007262     -0.005657     -0.001105
O	      6.21555      4.17893      8.37435        -0.006701      0.003647      0.014975
O	      1.91189      4.45917      0.23534        -0.005418     -0.002475      0.007827
O	      8.39392      4.36802      2.08615        -0.006272     -0.010680     -0.005370
O	      8.14471      4.02514      6.53841        -0.006703      0.002359      0.013048
O	      4.30209      2.10771      0.05801         0.008426     -0.000352      0.001215
O	      4.02782      6.40100      8.27184         0.004579     -0.004349     -0.001847
O	      2.11683      0.08120      4.18704         0.001951     -0.015334      0.001227
O	      6.16593      8.34986      4.10355        -0.010639     -0.011736      0.001769
O	      2.10826      6.42047      6.37870         0.004915      0.001389     -0.004055
O	      6.24338      2.12858      2.03702        -0.000171     -0.003553      0.008067
O	      4.19835      4.13642      2.11407        -0.004405     -0.000528     -0.007323
O	      4.23598      4.34417      6.19033        -0.005838     -0.004104      0.003683
O	      8.20605      2.10735      8.39253        -0.008197      0.006210     -0.010196
O	      0.04224      6.32589      0.08845         0.003158     -0.005741     -0.000089
O	      8.26367      0.06610      6.32501        -0.002190     -0.008479     -0.003454
O	      8.26610      8.37824      2.10059         0.002699     -0.012778     -0.001147
O	      4.25358      6.25280      4.24973        -0.011896      0.005952     -0.021393
O	      4.13805      2.17430      4.12353        -0.014387      0.010077     -0.005004
O	      6.27528      2.16919      6.37286        -0.001190     -0.000008     -0.008233
O	      2.06073      6.35839      2.07416        -0.008957     -0.004040     -0.003460
O	      2.27361      4.05268      3.96413         0.004634     -0.003562     -0.007038
O	      6.18012      4.33517      4.28689         0.005367     -0.006067     -0.000609
O	      6.40738      0.15408      0.11238         0.014503      0.010290      0.000245
O	      2.04549      8.35642      8.56090         0.001267     -0.008132      0.007968
O	      6.34432      6.37838      2.16518        -0.004985      0.006539      0.002891
O	      1.92031      2.18037      6.18600        -0.000242     -0.001921      0.005910
O	      2.01802      2.16166     10.58346        -0.010647      0.011845      0.002532
O	      6.22518      6.14091     14.63758        -0.005875     -0.007839     -0.006562
O	      4.12260      8.21797     14.84919         0.003001      0.006577      0.003325
O	      4.22775      8.23158     10.37239         0.004360     -0.006959      0.009556
O	      8.25787      6.30862     12.50982        -0.001649     -0.001350      0.007221
O	      0.17657      1.80045     12.80715         0.000107      0.004894      0.011000
O	      6.57346      3.91811     16.56491        -0.005719     -0.000735     -0.011198
O	      2.03172      4.32697      8.41445        -0.001862      0.000490     -0.002788
O	      0.13328      4.36115     10.26614        -0.005188      0.014353      0.001332
O	      0.00530      4.03286     14.71861        -0.000121     -0.001412      0.004957
O	      4.17052      2.09510      8.24424        -0.008620     -0.011358     -0.000246
O	      4.13323      6.30710     16.68534         0.000400      0.011477     -0.001199
O	      2.03368      8.36162     12.66574        -0.004001      0.003203     -0.000529
O	      6.35286      8.24111     12.56257         0.007551      0.000064     -0.011870
O	      2.10837      6.27490     14.54499         0.012515     -0.013531     -0.001522
O	      6.13999      2.00423     10.43718        -0.012072      0.000448     -0.011208
O	      4.11784      4.25217     10.51456         0.003630      0.001149      0.002382
O	      4.29247      4.14854     14.79548        -0.002822      0.003626      0.014509
O	      0.02977      2.03884     16.70538         0.001226     -0.001342      0.007258
O	      8.36136      6.31617      8.43395        -0.009599     -0.001822     -0.002408
O	      0.03915      8.28776     14.70979         0.009087     -0.004260      0.006097
O	      8.21706      8.27313     10.60473         0.006966      0.001055      0.007954
O	      4.26952      6.37543     12.75465         0.003328      0.004394      0.004752
O	      4.16448      1.95262     12.65779        -0.008649     -0.000520      0.003759
O	      6.39464      1.97146     14.74004        -0.002541     -0.004540     -0.005248
O	      1.99583      6.22351     10.43731         0.006587     -0.004779     -0.002668
O	      2.05226      4.01543     12.47287        -0.016937     -0.002095      0.002870
O	      6.22647      4.21441     12.72859        -0.001060     -0.001047      0.002877
O	      6.13040      0.10827      8.54260         0.002170     -0.004846     -0.003465
O	      2.23662      0.05094     16.71914        -0.006688      0.009832     -0.003119
O	      6.31061      6.33916     10.55385         0.002612      0.006307      0.012934
O	      2.10008      1.88384     14.62796        -0.001843      0.006427     -0.010008
O	      2.28050      2.01013     19.02774         0.004118     -0.007020      0.006010
O	      6.35628      6.33096     23.01810         0.003704      0.004682      0.000778
O	      4.34013      0.03496     23.06851        -0.005264      0.011032     -0.002827
O	      4.38757      0.07044     18.84776        -0.010230     -0.006144      0.003235
O	      0.11059      6.36370     21.03954         0.008469     -0.002086     -0.009530
O	      0.11106      2.08102     21.07413         0.001813      0.008954     -0.005780
O	      6.41490      4.17171     25.11986        -0.002868     -0.002776      0.003787
O	      2.11135      4.05253     16.79034         0.010133      0.000599     -0.008113
O	      0.06126      4.26466     18.77557         0.002297     -0.000655     -0.004618
O	      8.36359      4.15796     23.21497         0.005513      0.002154      0.000986
O	      4.35539      1.94922     16.87898         0.001219     -0.008272      0.003533
O	      4.16569      6.30676     25.11774        -0.002034     -0.004497      0.000304
O	      2.10359      0.14564     21.00940         0.000374     -0.003713     -0.002704
O	      6.50526      0.01284     20.93874        -0.003603     -0.001624     -0.005452
O	      2.26198      6.32737     23.23586         0.001068      0.001314     -0.008935
O	      6.32008      2.00299     18.82967        -0.008954      0.009720     -0.006693
O	      4.22456      4.13422     19.01684        -0.000947     -0.003540     -0.005623
O	      4.47445      4.47694     22.84651         0.011547      0.012538      0.000882
O	      8.33803      2.25027     25.16914         0.011056      0.001706      0.002761
O	      0.02712      6.15846     16.89689        -0.010238     -0.016213     -0.001572
O	      8.32849      0.15893     23.02116        -0.017560      0.009622     -0.004048
O	      0.05956      8.36947     18.99348         0.007196     -0.003420     -0.004593
O	      4.37009      6.37369     21.03042        -0.000550      0.003575      0.002682
O	      4.26248      2.20832     20.90916         0.006853     -0.009073      0.016656
O	      6.43247      2.24926     23.15938         0.004704      0.004376      0.010303
O	      2.15882      6.33837     18.94515         0.003356      0.004493      0.007382
O	      2.22798      4.10498     21.09349         0.019089      0.011993      0.005183
O	      6.39512      4.30846     21.02716        -0.014371     -0.007261     -0.006063
O	      6.26649      0.00723     16.88264        -0.003152     -0.006803      0.004007
O	      2.07773      0.01561      0.01723        -0.008923      0.012339      0.007516
O	      6.63240      6.49152     19.11269         0.004121      0.001255      0.011931
O	      2.06546      2.07382     23.01965        -0.002481     -0.004487      0.000611
