ITEM: TIMESTEP
0
ITEM: NUMBER OF ATOMS
30
ITEM: BOX BOUNDS xy xz yz pp pp pp
-2.5622400845000000e+00 5.1244801889999998e+00 -2.5622400845000000e+00
0.0000000000000000e+00 4.4379304480000004e+00 0.0000000000000000e+00
0.0000000000000000e+00 1.3795467525999999e+01 0.0000000000000000e+00
ITEM: ATOMS id type c_pe_atom
1 2      -5.577886212136
2 2      -5.577828495387
3 2      -5.577967216283
4 2      -5.577900812663
5 2      -5.577708411708
6 2      -5.577887371892
7 2      -5.577720981254
8 2      -5.577896190860
9 2      -5.577971352640
10 2      -5.577929072271
11 2      -5.577898289601
12 2      -5.577828385257
13 1      -6.168953823647
14 1      -6.168930842096
15 1      -6.168931595890
16 1      -6.168976099199
17 1      -6.168997659229
18 1      -6.168974712373
19 1      -6.169058892585
20 1      -6.169064688119
21 1      -6.169058246924
22 1      -6.169042543349
23 1      -6.169044527008
24 1      -6.169051985380
25 1      -6.168975454789
26 1      -6.168976652694
27 1      -6.168995653288
28 1      -6.168967538232
29 1      -6.168945677516
30 1      -6.168944256387
