ITEM: TIMESTEP
0
ITEM: NUMBER OF ATOMS
30
ITEM: BOX BOUNDS xy xz yz pp pp pp
-2.5622400845000000e+00 5.1244801889999998e+00 -2.5622400845000000e+00
0.0000000000000000e+00 4.4379304480000004e+00 0.0000000000000000e+00
0.0000000000000000e+00 1.3795467525999999e+01 0.0000000000000000e+00
ITEM: ATOMS id type v_vir_xx v_vir_yy v_vir_zz v_vir_xy v_vir_xz v_vir_yz
1 2      -2.725987857279      -2.725976969925      -1.210281316927      -0.000007721241      -0.000001630761       0.000003631821
2 2      -2.725964316926      -2.725989175760      -1.210388876751       0.000011502741       0.000026700922       0.000008716236
3 2      -2.725965998351      -2.725992273619      -1.210319754294       0.000004280060      -0.000000150353       0.000001221145
4 2      -2.726019775921      -2.726015198218      -1.210354756789      -0.000006330182      -0.000018493870      -0.000003389995
5 2      -2.726082995483      -2.726070324808      -1.210518070505       0.000007726520       0.000013579895      -0.000003119917
6 2      -2.726030171803      -2.726022163249      -1.210333223897      -0.000007129512      -0.000020353007      -0.000006962363
7 2      -2.726057921560      -2.726048883084      -1.210523867275       0.000007631424       0.000013891654      -0.000003268053
8 2      -2.726007498297      -2.725997697488      -1.210243667532      -0.000007770722      -0.000020114596      -0.000005453097
9 2      -2.725940065832      -2.725971466202      -1.210283379239       0.000003903927      -0.000000224879      -0.000000329759
10 2      -2.726000059613      -2.725991545391      -1.210290402633      -0.000007727976      -0.000018215052      -0.000001873484
11 2      -2.725988205917      -2.725979443702      -1.210245911638      -0.000007890475      -0.000001781392       0.000002038159
12 2      -2.725965886824      -2.725987514430      -1.210407402948       0.000010685278       0.000027009258       0.000008714836
13 1       2.165534168977       2.978350029132       1.539487455692      -0.703923358149       0.724938659207       0.418543250372
14 1       3.384783097801       1.759130023770       1.539495621150       0.000005510823       0.000001820372      -0.837077515803
15 1       2.165537130175       2.978362009496       1.539502293333       0.703917491377      -0.724942478826       0.418528210355
16 1       2.165493212151       2.978311822979       1.539479790472      -0.703942601851       0.724923833138       0.418534272989
17 1       2.165462988522       2.978326876287       1.539463369348       0.703932054255      -0.724918417814       0.418553130442
18 1       3.384689069150       1.759069438178       1.539472896974       0.000008504202      -0.000004682197      -0.837077500075
19 1       2.165472791885       2.978343692137       1.539480306944      -0.703916505620       0.724940775994       0.418542241477
20 1       3.384748702527       1.759087671215       1.539474042225      -0.000018564587       0.000006996268      -0.837078049856
21 1       2.165505792450       2.978311446072       1.539481358345       0.703935173493      -0.724945891212       0.418532464152
22 1       2.165471558142       2.978364611769       1.539481793223      -0.703907091577       0.724927850828       0.418552340854
23 1       2.165532173820       2.978308045121       1.539483187239       0.703940888747      -0.724949633103       0.418515898328
24 1       3.384757017602       1.759103008196       1.539475870599      -0.000034543155       0.000023274214      -0.837073089446
25 1       2.165492441640       2.978306690388       1.539468748475      -0.703942193977       0.724921766984       0.418535851268
26 1       3.384684608868       1.759070280886       1.539462005857       0.000011076460      -0.000002730182      -0.837077082455
27 1       2.165459240084       2.978322682916       1.539452086228       0.703929878953      -0.724918489907       0.418549587240
28 1       2.165517877927       2.978339197721       1.539474143197      -0.703922181930       0.724946183218       0.418539486620
29 1       2.165522970800       2.978345815482       1.539490079963       0.703920011818      -0.724942382954       0.418536267478
30 1       3.384769748189       1.759115294200       1.539482561817       0.000005771568      -0.000006174544      -0.837081749515
