160
Config_type=bulk_gamma_phase Weight=1.0 Lattice="8.276711724 0.000000000 0.000000000 0.000000000 8.276711724 0.000000000 0.000000000 0.000000000 24.830135171" Energy=-1359.39934020 Virial="59.32891 0.58168 -19.91963 0.58168 58.72767 -1.97343 -19.91963 -1.97343 64.26085" pbc="T T T" Properties=species:S:1:pos:R:3:forces:R:3
Ga	      1.20283      5.14168     21.82545         0.012764     -0.000079     -0.012343
Ga	      5.13805      0.83520     13.51896        -0.009110      0.000415      0.000053
Ga	      7.06734      7.31676      7.30517        -0.000925     -0.003781     -0.021043
Ga	      7.20400      7.04644     15.59399        -0.011039     -0.000290      0.007424
Ga	      5.16029      5.19289      0.97007        -0.023440     -0.001833      0.000655
Ga	      2.99447      3.16844      7.13275        -0.004789     -0.002561      0.019353
Ga	      0.93428      1.03758      1.09194        -0.008185     -0.004091     -0.029941
Ga	      5.10715      1.02532      5.18226         0.007618      0.004099     -0.025380
Ga	      3.14354      2.92287     15.46172        -0.005014      0.010849     -0.028164
Ga	      5.32461      1.10084     21.66055         0.003621     -0.011196     -0.011503
Ga	      3.09485      7.16396     11.38285         0.005846     -0.009183     -0.016286
Ga	      7.33245      3.15706     19.58305        -0.012164      0.018120     -0.004349
Ga	      1.00765      5.03522     13.33541         0.007393      0.001091     -0.017033
Ga	      7.24567      3.17752      3.16650         0.009134      0.000984      0.034478
Ga	      5.04035      5.27989      9.25774        -0.000095     -0.007406      0.000472
Ga	      7.26993      7.34770     23.82536         0.026943     -0.001636     -0.000145
Ga	      3.15858      7.36855     19.71424        -0.002938      0.027027      0.009285
Ga	      0.89899      1.06772      9.40595         0.000324     -0.004118     -0.009250
Ga	      3.19275      7.33760      3.04456         0.002302      0.004565      0.013991
Ga	      1.16013      1.02736     17.61597         0.008081     -0.004780     -0.000237
Ga	      3.87413      0.19564      8.29010        -0.006993      0.017590      0.008924
Ga	      6.06993      6.03781     12.39107         0.003562      0.006962      0.017749
Ga	      2.13819      2.12335     20.70873        -0.016482     -0.007565      0.006431
Ga	      6.32877      6.21565     20.64828         0.021679      0.010564      0.013779
Ga	      1.93396      6.31933      8.18414        -0.006871      0.014552     -0.010448
Ga	      8.23640      2.03574      6.16930         0.012557     -0.020947      0.018044
Ga	      1.97246      2.06742      4.17822        -0.028593     -0.010478      0.003823
Ga	      0.03941      1.98931     14.43522         0.001409      0.006366     -0.007220
Ga	      0.17068      6.13047     18.58153         0.007668      0.002810      0.007293
Ga	      6.19741      0.05616      2.07868         0.002938     -0.026348      0.015625
Ga	      6.02707      0.07671     10.40853        -0.005749      0.008257      0.007420
Ga	      4.13111      2.17251     18.57507         0.013061     -0.007839      0.021721
Ga	      6.33733      8.22834     18.62112        -0.000115      0.004886     -0.000696
Ga	      6.27864      2.04313     16.54317        -0.007121     -0.011969     -0.004305
Ga	      0.15930      2.04917     22.81468        -0.013720     -0.009095     -0.005726
Ga	      2.00442      8.06081     14.58274         0.010035     -0.003209     -0.010200
Ga	      3.96892      5.95043     14.49327         0.011943      0.003800      0.015809
Ga	      6.19140      4.15917      6.22064         0.007826      0.002677     -0.006296
Ga	      4.15615      6.31427     22.80207         0.001758      0.030536     -0.005202
Ga	      0.09995      4.14099     16.55600         0.009007     -0.010269      0.005692
Ga	      2.06257      4.19172      2.06785        -0.004750     -0.017750      0.007273
Ga	      4.09980      4.25157     20.64126         0.000513     -0.000962      0.013132
Ga	      4.10191      8.07851     16.61831        -0.012815     -0.003884     -0.005203
Ga	      6.21570      4.19405     22.72799        -0.005557     -0.022741     -0.028345
Ga	      8.21280      6.12522     10.33356         0.015175     -0.000749     -0.007495
Ga	      8.25748      8.21830     12.43221        -0.004229      0.019448     -0.019430
Ga	      0.04701      4.22170      0.02770        -0.009064     -0.001129      0.006265
Ga	      6.15279      4.02044     14.46029         0.004236     -0.008606      0.003606
Ga	      4.07653      4.14960      4.11240         0.014571      0.008424     -0.031801
Ga	      2.10694      2.01235     12.33784         0.006207      0.004613     -0.000281
Ga	      2.07199      4.05820     10.35913         0.009921      0.006830     -0.016929
Ga	      0.03742      6.34617      2.17270        -0.001965     -0.004903     -0.026066
Ga	      0.20135      8.23892     20.79421         0.003708     -0.005164     -0.017213
Ga	      4.07285      2.02721      1.95740         0.026799      0.014741     -0.000720
Ga	      6.12915      2.03715     24.78566         0.009376     -0.009870      0.002496
Ga	      8.24475      4.09986      8.27444         0.008770     -0.009933     -0.011257
Ga	      6.01999      2.14428      8.37975        -0.015597     -0.005391     -0.017906
Ga	      3.96852      6.34882      6.14714         0.003295      0.020131      0.011156
Ga	      6.26376      6.34049      4.18861        -0.001749      0.007590     -0.011209
Ga	      2.15402      6.31298     24.79356        -0.004676      0.018252     -0.004713
Ga	      5.11548      3.08792     11.42327         0.025766     -0.019572      0.006952
Ga	      3.13463      1.07345     23.77499         0.000538      0.030987     -0.010713
Ga	      3.14497      5.10494     17.58511         0.012680      0.011962      0.014439
Ga	      0.97559      7.29862      5.16286         0.006021     -0.025430     -0.008077
O	      2.09196      2.12768      2.10120         0.003647     -0.003256      0.000808
O	      6.06568      6.16371      6.17343        -0.004590     -0.005346     -0.006483
O	      4.16861      8.22855      6.34314        -0.006147      0.000843      0.002357
O	      4.25202      0.12702      2.02836        -0.007710      0.005445     -0.004540
O	      8.16611      6.24051      4.08264        -0.008351     -0.004370     -0.002970
O	      0.02253      2.11743      4.21329        -0.000350      0.007300     -0.002422
O	      6.13856      4.12974      8.24455        -0.009688      0.003113     -0.004510
O	      1.92279      4.36567      0.19573        -0.002707      0.015425      0.004181
O	      8.27327      4.29221      2.04302        -0.003136      0.004973     -0.005016
O	      8.06095      3.98877      6.40478        -0.021585     -0.004379      0.005424
O	      4.22444      2.12706      0.04176         0.005872      0.009558      0.013603
O	      3.96654      6.32058      8.14997         0.001376     -0.009846     -0.007631
O	      2.09014      0.08054      4.11718        -0.007894     -0.010439     -0.004760
O	      6.08942      8.23148      4.04420        -0.014316     -0.007601      0.012814
O	      2.06349      6.27106      6.26511         0.002488     -0.003521      0.007572
O	      6.14627      2.10485      2.00594         0.006035      0.000596      0.004789
O	      4.12736      4.08102      2.09077        -0.003644      0.004302      0.002705
O	      4.17423      4.27795      6.10871        -0.003967      0.008333      0.003529
O	      8.07561      2.07857      8.24948         0.012148     -0.004828     -0.004372
O	      0.04739      6.22699      0.09342        -0.002261      0.003823     -0.006144
O	      8.13405      0.06536      6.22256        -0.001884     -0.014697     -0.006501
O	      8.14492      8.25085      2.10841         0.004925     -0.011716     -0.003532
O	      4.19192      6.16370      4.17325        -0.009811     -0.001074     -0.002537
O	      4.07056      2.14525      4.05192        -0.005476     -0.004749      0.005177
O	      6.17681      2.14395      6.28110        -0.000989     -0.009634     -0.004758
O	      2.02897      6.25210      2.03409         0.001950      0.002379     -0.001343
O	      2.20157      4.01563      3.93787         0.000110     -0.011797     -0.003662
O	      6.08409      4.26513      4.21394        -0.003887      0.001247     -0.000976
O	      6.28906      0.14471      0.10986         0.009188      0.011923     -0.002261
O	      1.98938      8.23311      8.38878        -0.003155     -0.001576      0.004021
O	      6.24769      6.27411      2.13120        -0.008330      0.005012      0.000727
O	      1.90887      2.10378      6.10914        -0.003637      0.003367      0.002915
O	      2.02625      2.11409     10.40300        -0.008111     -0.004586      0.001027
O	      6.12528      6.05275     14.41289         0.007709      0.002235      0.003521
O	      4.05646      8.08136     14.61991        -0.004384      0.010933      0.009826
O	      4.14549      8.14075     10.22667         0.001063      0.007332      0.000031
O	      8.13826      6.21383     12.33231        -0.007697      0.000861      0.008592
O	      0.14869      1.81092     12.56965         0.008654     -0.014621      0.017081
O	      6.44228      3.90135     16.34894         0.013670     -0.010435     -0.010181
O	      1.99773      4.26481      8.29717         0.007933     -0.004227      0.001904
O	      0.10717      4.25796     10.14407         0.000650      0.014004     -0.008499
O	      8.26885      3.97283     14.50659         0.013668     -0.005215     -0.006219
O	      4.10414      2.08460      8.16153        -0.017543      0.007706      0.001650
O	      4.12404      6.19049     16.44154        -0.001407     -0.002569     -0.008263
O	      1.99502      8.23037     12.48305        -0.003268     -0.009910      0.012444
O	      6.25176      8.10997     12.37655        -0.007812      0.002822     -0.001903
O	      2.06661      6.16290     14.36680        -0.006881     -0.022714     -0.004588
O	      6.09888      1.98678     10.29127        -0.010934      0.000385     -0.004457
O	      4.05423      4.19129     10.35207         0.010023      0.000469      0.008622
O	      4.22298      4.06211     14.52550        -0.003093     -0.000253      0.002706
O	      0.02181      2.01507     16.45521         0.005772     -0.005233      0.002798
O	      8.22071      6.20537      8.30764        -0.004556      0.002098      0.002741
O	      0.02394      8.17590     14.48374        -0.003407     -0.010012     -0.003440
O	      8.09342      8.14407     10.43306         0.004051      0.006867     -0.002174
O	      4.19143      6.24435     12.55224        -0.000597     -0.005594      0.002537
O	      4.09396      1.92001     12.45898         0.005774     -0.008200      0.001404
O	      6.29251      1.94957     14.51750        -0.000778     -0.008453      0.017015
O	      1.95916      6.12970     10.27114         0.004203     -0.001338      0.002997
O	      2.05850      3.96370     12.29680        -0.020193     -0.004122      0.006128
O	      6.18508      4.13723     12.52280        -0.004177      0.004731     -0.008008
O	      6.02226      0.10712      8.40786         0.006896     -0.000886      0.002845
O	      2.19515      0.01821     16.48228        -0.011114      0.009239      0.002606
O	      6.21060      6.25481     10.39140        -0.004243     -0.001258      0.009211
O	      2.05454      1.84252     14.40212         0.000830     -0.003385      0.009979
O	      2.23751      2.00370     18.73793         0.009551     -0.000301     -0.005626
O	      6.25617      6.22668     22.67074         0.006188      0.009675     -0.001189
O	      4.27533      0.02821     22.72521        -0.008730      0.020547      0.009377
O	      4.31985      0.07610     18.57462         0.002211     -0.012237     -0.000332
O	      0.09939      6.25965     20.70352         0.005421      0.001790     -0.001146
O	      0.10023      2.04922     20.75455        -0.009927     -0.007156      0.000816
O	      6.31875      4.11127     24.74472         0.001698      0.009591      0.013823
O	      2.07886      3.98688     16.53227         0.008782     -0.003837      0.006506
O	      0.09807      4.18502     18.50397        -0.012338      0.002254      0.009464
O	      8.23401      4.10323     22.84921        -0.007633     -0.004780     -0.005131
O	      4.28265      1.90616     16.61302        -0.002938     -0.000009     -0.005570
O	      4.10945      6.25347     24.74700        -0.002926     -0.009565      0.002141
O	      2.08581      0.15038     20.72956         0.000536     -0.001412     -0.004579
O	      6.41029      8.27456     20.62165         0.001722      0.007347      0.012323
O	      2.20887      6.27593     22.86002         0.000876     -0.006251      0.006623
O	      6.22356      1.96870     18.55098         0.000156     -0.000264      0.008266
O	      4.21308      4.07706     18.71529         0.005840     -0.009218     -0.000212
O	      4.36241      4.38244     22.53654         0.006872      0.013588     -0.000021
O	      8.20652      2.21180     24.79465         0.015969      0.006646      0.003767
O	      0.07221      6.07836     16.63059        -0.008882     -0.002772     -0.001041
O	      8.23064      0.14769     22.68581        -0.014856     -0.000669     -0.000695
O	      0.06123      8.23641     18.71483         0.004472     -0.000579     -0.000930
O	      4.30947      6.27313     20.72058        -0.000873      0.003940      0.002138
O	      4.20099      2.17384     20.59820         0.002120     -0.005633      0.009179
O	      6.34459      2.20869     22.80641        -0.000664      0.010796      0.006307
O	      2.13112      6.24586     18.66041         0.012299     -0.011805     -0.004761
O	      2.18800      4.06574     20.71822         0.003732      0.011321      0.012109
O	      6.27229      4.22981     20.71397         0.010527     -0.000132      0.003376
O	      6.17455      0.01134     16.62047        -0.005065     -0.002991     -0.005392
O	      2.04146      0.01640      0.02216        -0.009445      0.015466      0.006753
O	      6.50534      6.35530     18.78238         0.002832      0.002139      0.006760
O	      2.04630      2.10061     22.67926        -0.013751      0.014651      0.000541
