ITEM: TIMESTEP
0
ITEM: NUMBER OF ATOMS
30
ITEM: BOX BOUNDS xy xz yz pp pp pp
-2.4862843505000001e+00 4.9725687210000000e+00 -2.4862843505000001e+00
0.0000000000000000e+00 4.3063712450000002e+00 0.0000000000000000e+00
0.0000000000000000e+00 1.3386510979000001e+01 0.0000000000000000e+00
ITEM: ATOMS id type x y z fx fy fz
1 2       0.000000000000       0.000000000000       1.928820000000      -0.000015312816      -0.000016834641      -0.012392297586
2 2       0.000000007000       2.870910000000       0.302270000000       0.000009272260       0.000102653213       0.012340943361
3 2       2.486280003500       1.435460000000       2.533340000000       0.000091309529      -0.000074811295       0.012479747230
4 2       0.000000007000       2.870910000000       4.159910000000      -0.000040595495       0.000098812053      -0.012376785882
5 2       2.486280003500       1.435460000000       6.390990000000       0.000099654038      -0.000113180171      -0.012371422057
6 2       0.000000000000       0.000000000000       4.764430000000      -0.000003903265      -0.000013019348       0.012478004068
7 2       0.000000007000       2.870910000000       6.995520000000       0.000028326560       0.000102779518       0.012373859533
8 2       0.000000000000       0.000000000000       8.622080000000       0.000018550517      -0.000001700280      -0.012480565413
9 2       0.000000007000       2.870910000000      10.853170000000       0.000003994596       0.000097212457      -0.012463735133
10 2       2.486280003500       1.435460000000       9.226600000000       0.000107145466      -0.000073709749       0.012386563534
11 2       0.000000000000       0.000000000000      11.457690000000      -0.000022782109      -0.000016301418       0.012368663441
12 2       2.486280003500       1.435460000000      13.084240000000       0.000096508208      -0.000110155842      -0.012352354123
13 1      -0.753619996817       1.305310000000       3.346630000000       0.018551400395      -0.032271082007      -0.000076417570
14 1       1.507240000000       0.000000000000       3.346630000000      -0.037213226798      -0.000006267585      -0.000018586020
15 1       1.732660007317       3.001060000000       3.346630000000       0.018668811473       0.032255605509      -0.000057116204
16 1       3.239900000317       0.130150000000       1.115540000000      -0.018495415447       0.032203896002       0.000043731002
17 1       3.239910006683       2.740760000000       1.115540000000      -0.018733579943      -0.032114425784       0.000104524980
18 1       0.979050003500       1.435460000000       1.115540000000       0.037138551711      -0.000103715037       0.000064215400
19 1       1.732670006683       2.740760000000       7.808790000000       0.018617068375      -0.032132477599       0.000134817772
20 1       3.993530003500       1.435460000000       7.808790000000      -0.037276943916      -0.000147186478       0.000161195590
21 1       1.732670000317       0.130150000000       7.808790000000       0.018503531074       0.032243066477       0.000142189956
22 1       0.753620003817       1.565610000000       5.577720000000      -0.018688555561       0.032130061787      -0.000159989463
23 1       0.753620010183       4.176220000000       5.577720000000      -0.018573019156      -0.032223708847      -0.000104605247
24 1      -1.507239993000       2.870910000000       5.577720000000       0.037216035013       0.000147201114      -0.000164787429
25 1      -0.753619989817       4.176220000000      12.270970000000       0.018577318485      -0.032201271879      -0.000033368335
26 1       1.507240007000       2.870910000000      12.270970000000      -0.037218859255       0.000130741291      -0.000080782107
27 1      -0.753619996183       1.565610000000      12.270970000000       0.018631443219       0.032121128460      -0.000041394205
28 1      -1.732659992683       3.001060000000      10.039880000000      -0.018646118688       0.032263822300       0.000024736844
29 1       0.753620003183       1.305310000000      10.039880000000      -0.018601132898      -0.032251252436       0.000033196349
30 1       3.465330000000       0.000000000000      10.039880000000       0.037170524427      -0.000025879781       0.000037817713
