ITEM: TIMESTEP
0
ITEM: NUMBER OF ATOMS
30
ITEM: BOX BOUNDS xy xz yz pp pp pp
-2.4862843505000001e+00 4.9725687210000000e+00 -2.4862843505000001e+00
0.0000000000000000e+00 4.3063712450000002e+00 0.0000000000000000e+00
0.0000000000000000e+00 1.3386510979000001e+01 0.0000000000000000e+00
ITEM: ATOMS id type v_vir_xx v_vir_yy v_vir_zz v_vir_xy v_vir_xz v_vir_yz
1 2      -5.615173076010      -5.615228794335      -5.127126100289      -0.000022098972       0.000003523693       0.000011114505
2 2      -5.615423323925      -5.615344295032      -5.127306242376       0.000031135543       0.000002829136       0.000027280727
3 2      -5.615251541157      -5.615243168402      -5.127156178647       0.000008944765       0.000013536487      -0.000007273554
4 2      -5.615262272346      -5.615246870341      -5.127199126098       0.000018712841       0.000029459665      -0.000015804588
5 2      -5.615385867609      -5.615345597740      -5.127447565425       0.000006821137       0.000012264317       0.000028247891
6 2      -5.615171676590      -5.615248332809      -5.127195135785      -0.000003227460       0.000021366317      -0.000007204235
7 2      -5.615355790017      -5.615374006571      -5.127444854302       0.000019254991       0.000020694193       0.000030123718
8 2      -5.615171289564      -5.615262545175      -5.127195032819      -0.000026809147      -0.000005114627       0.000006241700
9 2      -5.615245523235      -5.615250020974      -5.127172026833       0.000027592255      -0.000025935332      -0.000021320855
10 2      -5.615241489553      -5.615239163500      -5.127198448213      -0.000020232155       0.000008255905      -0.000015002657
11 2      -5.615214898536      -5.615249007604      -5.127148279901      -0.000038484840      -0.000015924826       0.000001239199
12 2      -5.615407410261      -5.615347350074      -5.127303511462       0.000040149506      -0.000019559699       0.000023380608
13 1       2.058355067213       2.864212690118       2.260324594402      -0.697972271386       0.305658494746       0.176455199746
14 1       3.267192893055       1.655374726858       2.260326736967       0.000006226411      -0.000003967437      -0.352952260517
15 1       2.058294869628       2.864235826636       2.260323378222       0.697936312793      -0.305642772921       0.176464018857
16 1       2.058430348171       2.864260493531       2.260311283527      -0.697971947506       0.305666494275       0.176460522556
17 1       2.058319313434       2.864304551545       2.260310032022       0.697902431783      -0.305629314279       0.176500017419
18 1       3.267221316355       1.655399909966       2.260325089912       0.000062307769      -0.000023881085      -0.352943542746
19 1       2.058288493355       2.864289717052       2.260336464019      -0.697917661694       0.305664280002       0.176486491126
20 1       3.267180229662       1.655358588183       2.260300146815      -0.000073914538       0.000022631207      -0.352922355624
21 1       2.058371599240       2.864220983566       2.260330019938       0.697953900507      -0.305689869345       0.176454941429
22 1       2.058268408540       2.864299424939       2.260333397410      -0.697918712998       0.305635716188       0.176496307883
23 1       2.058356082061       2.864228794088       2.260317398325       0.697944411950      -0.305684685080       0.176464747123
24 1       3.267173564563       1.655379070857       2.260318424080      -0.000074944782       0.000018276385      -0.352946122102
25 1       2.058383031837       2.864265164592       2.260312525604      -0.697950493411       0.305661260011       0.176456623502
26 1       3.267195814556       1.655382145165       2.260320999853       0.000059359531      -0.000021857114      -0.352919467219
27 1       2.058345944950       2.864288464857       2.260317323592       0.697929269043      -0.305648585960       0.176481926357
28 1       2.058308206753       2.864224255244       2.260311343619      -0.697935860451       0.305650911202       0.176460076773
29 1       2.058307454271       2.864243260484       2.260327824887       0.697950097896      -0.305635041173       0.176465495778
30 1       3.267201387009       1.655406564030       2.260329696897       0.000008846049       0.000000815850      -0.352966675097
