ITEM: TIMESTEP
0
ITEM: NUMBER OF ATOMS
40
ITEM: BOX BOUNDS pp pp pp
0.0000000000000000e+00 8.8021311939999993e+00
0.0000000000000000e+00 5.1257573089999999e+00
0.0000000000000000e+00 9.4185390170000005e+00
ITEM: ATOMS id type x y z fx fy fz
1 2       1.380860000000       1.586610000000       8.361860000000       0.094049827739       0.014686440962       0.067664755117
2 2       3.129270000000       4.149490000000       8.361870000000      -0.094055131440       0.014571062996       0.067576206811
3 2       5.797020000000       0.904640000000       7.522280000000      -0.035895495874      -0.003124299188      -0.071067057449
4 2       7.515240000000       3.467520000000       7.522290000000       0.035915627382      -0.003194210707      -0.071108918124
5 2       4.740230000000       3.471550000000       5.615480000000       0.161582470251      -0.133483165827       0.143006012271
6 2       1.478190000000       3.518790000000       5.740370000000       0.081061983902      -0.134059877327       0.222491060807
7 2       3.031930000000       0.955910000000       5.740370000000      -0.080927246383      -0.134001604229       0.222426479423
8 2       8.572030000000       0.908670000000       5.615480000000      -0.161580316101      -0.133494093532       0.143044944157
9 2       1.395880000000       1.657750000000       2.812780000000      -0.037146818975       0.004708839612      -0.069550650929
10 2       3.114260000000       4.220620000000       2.812780000000       0.037038016577       0.004968800191      -0.069491677791
11 2       5.780750000000       0.977130000000       3.652740000000       0.097773693867      -0.015886197600       0.067495325355
12 2       7.531510000000       3.540010000000       3.652740000000      -0.097751964882      -0.015926115143       0.067474183331
13 2       4.171890000000       1.654660000000       0.906340000000      -0.156696196148       0.137061935235       0.146519527177
14 2       5.878990000000       4.169840000000       1.030800000000       0.085092639408       0.135657510950       0.224813140304
15 2       7.433270000000       1.606960000000       1.030800000000      -0.084979270200       0.135677971933       0.224799347303
16 2       0.338240000000       4.217540000000       0.906350000000       0.156653217699       0.137075731422       0.146385367579
17 1       7.349730000000       1.783640000000       4.439890000000       0.043679927607      -0.038084721433       0.024547911847
18 1       0.039360000000       0.779290000000       0.044850000000       0.069500322076      -0.087254383629      -0.015425067803
19 1       7.382090000000       0.092900000000       6.960740000000      -0.004035733505       0.083980690715      -0.099393416089
20 1       7.308120000000       4.981620000000       2.135970000000       0.076548195322      -0.068872176175      -0.126672766147
21 1       5.962530000000       4.346520000000       4.439890000000      -0.043656989712      -0.038107171893       0.024524348474
22 1       7.461370000000       3.353520000000       9.401810000000      -0.004311730476      -0.061134190005      -0.139644034933
23 1       5.930170000000       2.655790000000       6.960740000000       0.004023703343       0.083733519105      -0.099326623199
24 1       6.004150000000       2.418740000000       2.135970000000      -0.076607774726      -0.068812626405      -0.126620404608
25 1       1.449250000000       1.771970000000       4.692640000000       0.005708822548       0.060883993569      -0.140117247274
26 1       2.949620000000       0.779980000000       9.149270000000       0.040389543844       0.037467428682       0.024465156784
27 1       1.604400000000       0.143010000000       6.846310000000      -0.073397107902       0.067645794738      -0.122547641251
28 1       1.529150000000       5.032320000000       2.251440000000       0.005051940450      -0.082330174950      -0.098296730926
29 1       0.070170000000       4.347190000000       4.754090000000      -0.064198469009       0.086253381237      -0.010580035651
30 1       1.560510000000       3.342860000000       9.149270000000      -0.040419843279       0.037465383213       0.024505433689
31 1       0.153440000000       2.439670000000       6.910750000000      -0.146987466318       0.043330885974      -0.015261290552
32 1       8.757190000000       2.685730000000       2.201690000000       0.151635159232      -0.047356451590      -0.012273176519
33 1       4.439960000000       1.784310000000       4.754090000000       0.064127763373       0.086252226826      -0.010525575899
34 1       5.850890000000       0.790640000000       9.401810000000       0.004283008780      -0.061148664694      -0.139762755254
35 1       4.356690000000       5.002540000000       6.910740000000       0.146955789390       0.043418334831      -0.015152614686
36 1       4.555080000000       0.122850000000       2.201690000000      -0.151723515018      -0.047359706958      -0.012288762525
37 1       3.060880000000       4.334840000000       4.692640000000      -0.005725916779       0.060939682244      -0.140134132181
38 1       4.470770000000       3.342160000000       0.044850000000      -0.069460246649      -0.087121364572      -0.015432575583
39 1       2.905720000000       2.705890000000       6.846320000000       0.073364103990       0.067572937486      -0.122594542532
40 1       2.980980000000       2.469450000000       2.251440000000      -0.004878523400      -0.082601356065      -0.098471502528
