ITEM: TIMESTEP
0
ITEM: NUMBER OF ATOMS
40
ITEM: BOX BOUNDS pp pp pp
0.0000000000000000e+00 8.6965056199999999e+00
0.0000000000000000e+00 5.0642482209999997e+00
0.0000000000000000e+00 9.3055165479999999e+00
ITEM: ATOMS id type c_pe_atom
1 2      -5.673127598407
2 2      -5.673117587618
3 2      -7.176947605059
4 2      -7.176883806013
5 2      -4.922174081929
6 2      -2.881404736781
7 2      -2.881464295369
8 2      -4.922159115992
9 2      -7.176080351624
10 2      -7.176101651481
11 2      -5.675187493731
12 2      -5.675207321810
13 2      -4.919151110553
14 2      -2.883140546514
15 2      -2.883115301970
16 2      -4.919130135265
17 1      -4.251837260656
18 1      -3.135913280814
19 1      -4.026623323854
20 1     -11.671431019255
21 1      -4.251814446226
22 1      -8.121792704056
23 1      -4.026586611973
24 1     -11.671337496774
25 1      -8.123916353652
26 1      -4.248178236009
27 1     -11.671886783941
28 1      -4.027244828069
29 1      -3.136186935056
30 1      -4.248006560313
31 1      -7.499550031109
32 1      -7.498777651243
33 1      -3.136319114647
34 1      -8.121719753772
35 1      -7.499650336327
36 1      -7.498793688824
37 1      -8.123903946754
38 1      -3.135723188765
39 1     -11.671942292649
40 1      -4.027362750268
