40
Config_type=bulk_kappa_phase Weight=1.0 Lattice="8.696505620 0.000000000 0.000000000 0.000000000 5.064248221 0.000000000 0.000000000 0.000000000 9.305516548" Energy=-340.17905980 Virial="17.06623 -0.00153 0.00078 -0.00153 18.15868 0.01378 0.00078 0.01378 16.54063" pbc="T T T" Properties=species:S:1:pos:R:3:forces:R:3
Ga	      1.36707      1.56325      8.25843        -0.000778     -0.000501      0.005198
Ga	      3.08894      4.09536      8.25844        -0.000308     -0.000390      0.006626
Ga	      5.72101      0.90234      7.43132         0.005323      0.027390     -0.018781
Ga	      7.43150      3.43446      7.43132        -0.008605      0.026061     -0.020025
Ga	      4.67651      3.42963      5.54840         0.003865      0.002657      0.007019
Ga	      1.46040      3.47724      5.67286        -0.003729     -0.013292     -0.010612
Ga	      2.99560      0.94511      5.67286         0.005099     -0.011305     -0.011594
Ga	      8.47601      0.89750      5.54841        -0.001932      0.002620      0.007296
Ga	      1.37263      1.62945      2.77862         0.007386     -0.027713     -0.019940
Ga	      3.08338      4.16158      2.77862        -0.008808     -0.026898     -0.020122
Ga	      5.71480      0.96947      3.60563        -0.002581      0.002716      0.005974
Ga	      7.43772      3.50159      3.60563         0.001208      0.000992      0.005529
Ga	      4.12820      1.63495      0.89577        -0.002252     -0.003452      0.008708
Ga	      5.80853      4.11910      1.01997        -0.004421      0.013211     -0.011044
Ga	      7.34398      1.58698      1.01997         0.005343      0.011411     -0.012318
Ga	      0.32781      4.16707      0.89577         0.004517     -0.003879      0.008090
O	      7.26278      1.76761      4.39600        -0.005205      0.009353      0.010498
O	      0.02718      0.76533      0.02308        -0.005711     -0.005336      0.001487
O	      7.29956      0.10593      6.87659        -0.010317      0.007088      0.002982
O	      7.23303      4.93551      2.12244        -0.000316     -0.004599      0.006505
O	      5.88973      4.29974      4.39600         0.005933      0.008725      0.010579
O	      7.36714      3.31577      9.29198         0.004670      0.001448     -0.009351
O	      5.85295      2.63806      6.87659         0.009786      0.007547      0.002446
O	      5.91949      2.40339      2.12245        -0.000420     -0.004591      0.006631
O	      1.43680      1.74840      4.63936        -0.003475     -0.001453     -0.009482
O	      2.91494      0.76507      9.04894        -0.004955     -0.010451      0.010361
O	      1.57222      0.12806      6.77587        -0.001955      0.005135      0.005538
O	      1.50472      4.95793      2.22398         0.011127     -0.006668      0.003684
O	      0.08105      4.29935      4.67588         0.003700      0.004959      0.001505
O	      1.54107      3.29719      9.04894         0.005638     -0.010211      0.010398
O	      0.15986      2.41589      6.82715        -0.001915      0.006717      0.006366
O	      8.64414      2.64798      2.17465         0.001671     -0.005349      0.004522
O	      4.37496      1.76722      4.67588        -0.004115      0.004685      0.001734
O	      5.78538      0.78364      9.29198        -0.004846      0.001193     -0.008758
O	      4.29614      4.94801      6.82715         0.001713      0.006433      0.006563
O	      4.50838      0.11586      2.17465        -0.001078     -0.005495      0.004625
O	      3.01921      4.28052      4.63937         0.003886     -0.001983     -0.009973
O	      4.42883      3.29746      0.02308         0.005689     -0.005764      0.001934
O	      2.88377      2.66019      6.77588         0.002425      0.005058      0.005311
O	      2.95129      2.42580      2.22398        -0.011258     -0.006067      0.003888
