ITEM: TIMESTEP
0
ITEM: NUMBER OF ATOMS
40
ITEM: BOX BOUNDS pp pp pp
0.0000000000000000e+00 8.9253610309999996e+00
0.0000000000000000e+00 5.1975179110000003e+00
0.0000000000000000e+00 9.5503985629999999e+00
ITEM: ATOMS id type x y z fx fy fz
1 2       1.394550000000       1.612250000000       8.489240000000      -0.032456182034       0.005224511331      -0.027239464041
2 2       3.178720000000       4.211000000000       8.489240000000       0.032502293624       0.005322718968      -0.027232563776
3 2       5.885340000000       0.909530000000       7.630340000000       0.066239225681      -0.166968451849       0.017787208341
4 2       7.613290000000       3.508290000000       7.630350000000      -0.066344906474      -0.167060622962       0.017692808766
5 2       4.811860000000       3.522700000000       5.694760000000      -0.100877948756       0.060382319063       0.164113868183
6 2       1.498730000000       3.570040000000       5.820380000000      -0.086257828258       0.063046365422      -0.114146312650
7 2       3.074530000000       0.971290000000       5.820380000000       0.086347026901       0.062948757457      -0.114173462456
8 2       8.686770000000       0.923930000000       5.694760000000       0.100842169104       0.060490816319       0.164154280266
9 2       1.422560000000       1.688740000000       2.855280000000       0.067292223031       0.172048257339       0.018656060953
10 2       3.150710000000       4.287500000000       2.855280000000      -0.067163027156       0.172022762714       0.018751763364
11 2       5.856620000000       0.987170000000       3.713930000000      -0.033773336207      -0.005492070542      -0.026500272211
12 2       7.642010000000       3.585930000000       3.713930000000       0.033755056549      -0.005545775885      -0.026506673019
13 2       4.224700000000       1.675350000000       0.919840000000       0.101560162349      -0.062423149504       0.163057329208
14 2       5.961320000000       4.226270000000       1.044780000000      -0.086602820947      -0.061469645505      -0.113108579431
15 2       7.537320000000       1.627510000000       1.044780000000       0.086477721560      -0.061440524283      -0.113044661761
16 2       0.348570000000       4.274110000000       0.919840000000      -0.101526037693      -0.062358777186       0.163059622132
17 1       7.451820000000       1.802420000000       4.490440000000      -0.020742556574      -0.107425020804      -0.072405144316
18 1       0.049210000000       0.791150000000       0.066970000000       0.034514875050       0.062909917776       0.131966420091
19 1       7.476470000000       0.079580000000       7.056730000000       0.048385475090       0.108316722930      -0.219644232190
20 1       7.396080000000       5.031050000000       2.148570000000      -0.029717725496       0.098234277839       0.023861562807
21 1       6.046810000000       4.401180000000       4.490440000000       0.020793966367      -0.107403980685      -0.072442901894
22 1       7.572330000000       3.393480000000       9.528790000000       0.094429786846       0.010489127151       0.143412438644
23 1       6.022150000000       2.678350000000       7.056730000000      -0.048326639649       0.108203790462      -0.219576303069
24 1       6.102560000000       2.432290000000       2.148570000000       0.029733153660       0.098266973434       0.023856049452
25 1       1.463270000000       1.803770000000       4.753850000000      -0.095033449691      -0.010754227523       0.143221501807
26 1       2.989680000000       0.797050000000       9.265980000000      -0.019288932160       0.106274539916      -0.072247996333
27 1       1.641220000000       0.165330000000       6.924670000000       0.024064481173      -0.095995070577       0.024236640475
28 1       1.559320000000       5.117740000000       2.281730000000      -0.045813251451      -0.112535021889      -0.219257086005
29 1       0.061810000000       4.406840000000       4.842310000000      -0.035680606075      -0.062608122649       0.132607865983
30 1       1.583590000000       3.395810000000       9.265980000000       0.019244067077       0.106321136110      -0.072196166094
31 1       0.145400000000       2.470160000000       7.007260000000       0.076326321865      -0.107439933569      -0.048370905543
32 1       8.890280000000       2.727030000000       2.232300000000      -0.074768786809       0.106120276058      -0.050041582227
33 1       4.511460000000       1.808080000000       4.842310000000       0.035670966250      -0.062558918136       0.132686710362
34 1       5.926300000000       0.794720000000       9.528790000000      -0.094399115889       0.010478123790       0.143335568562
35 1       4.427860000000       5.068920000000       7.007260000000      -0.076270426737      -0.107409292974      -0.048331908124
36 1       4.608360000000       0.128270000000       2.232300000000       0.074702802856       0.106087756622      -0.050028964807
37 1       3.110010000000       4.402520000000       4.753860000000       0.094956960644      -0.010713232509       0.143073682511
38 1       4.524060000000       3.389900000000       0.066970000000      -0.034441890960       0.063039146132       0.131980523166
39 1       2.932040000000       2.764090000000       6.924680000000      -0.024083105131      -0.096068094554       0.024215533248
40 1       3.013960000000       2.518980000000       2.281730000000       0.045729838470      -0.112558363247      -0.219232258374
