ITEM: TIMESTEP
0
ITEM: NUMBER OF ATOMS
80
ITEM: BOX BOUNDS pp pp pp
0.0000000000000000e+00 9.5615196680000007e+00
0.0000000000000000e+00 9.5615196680000007e+00
0.0000000000000000e+00 9.5615196680000007e+00
ITEM: ATOMS id type c_pe_atom
1 2      -7.006564192729
2 2      -6.797259359291
3 2      -6.797255809822
4 2      -6.797257581869
5 2      -6.797255809822
6 2      -6.797258179191
7 2      -6.797257581869
8 2      -7.006564192729
9 2      -7.006564453036
10 2      -7.006564192729
11 2      -6.797258179191
12 2      -6.797257581869
13 2      -6.797259359291
14 2      -6.797258179191
15 2      -6.797259359291
16 2      -6.797255809822
17 2      -7.006563932422
18 2      -6.797256066718
19 2      -6.797259655264
20 2      -6.797257844139
21 2      -6.797259655264
22 2      -6.797257285896
23 2      -6.797257844139
24 2      -7.006563932422
25 2      -7.006563672115
26 2      -7.006563932422
27 2      -6.797257285896
28 2      -6.797257844139
29 2      -6.797256066718
30 2      -6.797257285896
31 2      -6.797256066718
32 2      -6.797259655264
33 1      -5.311679853905
34 1      -5.311678318250
35 1      -5.311680768015
36 1      -5.311679075446
37 1      -5.311679873019
38 1      -5.311681720419
39 1      -5.311680768015
40 1      -5.311679873019
41 1      -5.311681720419
42 1      -5.311680409852
43 1      -5.311680768015
44 1      -5.311679853905
45 1      -5.311678405536
46 1      -5.311679873019
47 1      -5.311678318250
48 1      -5.311679075446
49 1      -5.311680409852
50 1      -5.311678405536
51 1      -5.311680409852
52 1      -5.311678318250
53 1      -5.311679853905
54 1      -5.311678405536
55 1      -5.311679075446
56 1      -5.311681720419
57 1      -5.311679859275
58 1      -5.311680607293
59 1      -5.311678554775
60 1      -5.311680100366
61 1      -5.311679943450
62 1      -5.311678243029
63 1      -5.311678554775
64 1      -5.311679943450
65 1      -5.311678243029
66 1      -5.311678662669
67 1      -5.311678554775
68 1      -5.311679859275
69 1      -5.311681160665
70 1      -5.311679943450
71 1      -5.311680607293
72 1      -5.311680100366
73 1      -5.311678662669
74 1      -5.311681160665
75 1      -5.311678662669
76 1      -5.311680607293
77 1      -5.311679859275
78 1      -5.311681160665
79 1      -5.311680100366
80 1      -5.311678243029
