ITEM: TIMESTEP
0
ITEM: NUMBER OF ATOMS
20
ITEM: BOX BOUNDS xy xz yz pp pp pp
-1.3735793142799999e+00 1.2310921747694000e+01 0.0000000000000000e+00
0.0000000000000000e+00 3.0486922820000002e+00 -1.3735793142799999e+00
0.0000000000000000e+00 5.6440950962040004e+00 0.0000000000000000e+00
ITEM: ATOMS id type x y z fx fy fz
1 2       1.525435062252       1.524350000000       1.769935281798       0.014785955960      -0.000039362381       0.049761068116
2 2       3.256442373534       0.000000000000       3.874161386875      -0.014759825457       0.000039361146      -0.049781509091
3 2       0.023157451834       0.000000000000       4.487531094725      -0.082920674284       0.000058588174      -0.049327582143
4 2       4.758719983951       1.524350000000       1.156565573948       0.083009509090      -0.000058586914       0.049255630246
5 2       7.680903412628       0.000000000000       1.769931477849       0.014701211588       0.000039361319       0.049844765897
6 2       9.411908359271       1.524350000000       3.874167299328      -0.014796717798      -0.000039363475      -0.049882808623
7 2       6.178613721169       1.524350000000       4.487534642539      -0.082904865052      -0.000058587875      -0.049505630238
8 2      10.914188334328       0.000000000000       1.156561769998       0.082920091488       0.000058589659       0.049376517504
9 1       5.763385331883       0.000000000000       1.441246167537      -0.052057550284       0.000074153680      -0.047105808669
10 1      -0.981505531458       1.524350000000       4.202840784733       0.052159951903      -0.000074149310       0.047168865883
11 1       1.355983892559       0.000000000000       3.170722134281      -0.017531655063       0.000024483920      -0.035020225762
12 1       3.425895907866       1.524350000000       2.473364817989       0.017480279415      -0.000024483672       0.035184791350
13 1       2.871691933543       1.524350000000       5.032388804149      -0.006185238807      -0.000035765290       0.006739739406
14 1       1.910185502243       0.000000000000       0.611707864524       0.006163993189       0.000035762518      -0.006823484559
15 1      11.918851317620       1.524350000000       1.441252079990      -0.052152638527      -0.000074149393      -0.047174406719
16 1       5.173950737877       0.000000000000       4.202844332547       0.052136986873       0.000074152363       0.047125703984
17 1       7.511449878296       1.524350000000       3.170728046734      -0.017607968998      -0.000024485333      -0.035066973729
18 1       9.581361893603       0.000000000000       2.473370730442       0.017520082604       0.000024484882       0.035008823047
19 1       9.027160283919       0.000000000000       5.032385000200      -0.006184660435       0.000035763009       0.006885581865
20 1       8.065644136217       1.524350000000       0.611701695935       0.006223732595      -0.000035767025      -0.006663057763
