ITEM: TIMESTEP
0
ITEM: NUMBER OF ATOMS
20
ITEM: BOX BOUNDS xy xz yz pp pp pp
-1.3735793142799999e+00 1.2310921747694000e+01 0.0000000000000000e+00
0.0000000000000000e+00 3.0486922820000002e+00 -1.3735793142799999e+00
0.0000000000000000e+00 5.6440950962040004e+00 0.0000000000000000e+00
ITEM: ATOMS id type c_pe_atom
1 2      -4.496124163499
2 2      -4.496204948684
3 2      -7.904991726357
4 2      -7.905000142619
5 2      -4.496296045090
6 2      -4.496165508810
7 2      -7.905056616597
8 2      -7.905022524363
9 1      -4.587124291554
10 1      -4.587058950420
11 1      -8.129573160827
12 1      -8.129526995989
13 1      -4.689690044154
14 1      -4.689735566626
15 1      -4.587051373007
16 1      -4.587028202699
17 1      -8.129552626284
18 1      -8.129606281589
19 1      -4.689617199716
20 1      -4.689502919360
