ITEM: TIMESTEP
0
ITEM: NUMBER OF ATOMS
30
ITEM: BOX BOUNDS xy xz yz pp pp pp
-2.5470489480000000e+00 5.0940978960000001e+00 -2.5470489480000000e+00
0.0000000000000000e+00 4.4116186080000004e+00 0.0000000000000000e+00
0.0000000000000000e+00 1.3713676217000000e+01 0.0000000000000000e+00
ITEM: ATOMS id type x y z fx fy fz
1 2       0.000000000000       0.000000000000       1.976680000000       0.000007387027       0.000031274506      -0.129410364357
2 2       0.000000000000       2.941080000000       0.308940000000       0.000006058061      -0.000029598698       0.129237626423
3 2       2.547050000000       1.470540000000       2.594540000000      -0.000011554651      -0.000022136844       0.129437825644
4 2       0.000000000000       2.941080000000       4.262300000000       0.000007390950       0.000011089665      -0.129387521307
5 2       2.547050000000       1.470540000000       6.547900000000      -0.000052512939       0.000007734401      -0.129315710579
6 2       0.000000000000       0.000000000000       4.880160000000      -0.000030353454       0.000012602459       0.129416211083
7 2       0.000000000000       2.941080000000       7.165780000000       0.000013314032      -0.000029224061       0.129319332833
8 2       0.000000000000       0.000000000000       8.833520000000       0.000016423864       0.000031035620      -0.129395313262
9 2       0.000000000000       2.941080000000      11.119130000000      -0.000019661145      -0.000006371032      -0.129312653975
10 2       2.547050000000       1.470540000000       9.451380000000      -0.000043368726      -0.000002438908       0.129408212337
11 2       0.000000000000       0.000000000000      11.737000000000       0.000004150778      -0.000007924410       0.129381950050
12 2       2.547050000000       1.470540000000      13.404740000000      -0.000010735569       0.000026703908      -0.129447900825
13 1      -0.771770000000       1.336750000000       3.428420000000      -0.061578463040       0.106578034199      -0.000030766863
14 1       1.543540000000       0.000000000000       3.428420000000       0.123161023921       0.000013158344      -0.000011559154
15 1       1.775280000000       3.074870000000       3.428420000000      -0.061606353518      -0.106582105400       0.000008687529
16 1       3.318820000000       0.133790000000       1.142800000000       0.061617214849      -0.106510228475       0.000131724102
17 1       3.318820000000       2.807290000000       1.142800000000       0.061515088577       0.106569035451       0.000077109570
18 1       1.003510000000       1.470540000000       1.142800000000      -0.123131840266      -0.000058427125       0.000107218340
19 1       1.775280000000       2.807290000000       7.999640000000      -0.061533978885       0.106566144311       0.000080557733
20 1       4.090590000000       1.470540000000       7.999640000000       0.123118663610      -0.000061207082       0.000099895650
21 1       1.775280000000       0.133790000000       7.999640000000      -0.061640582449      -0.106504003008       0.000120955648
22 1       0.771770000000       1.604330000000       5.714040000000       0.061487664890      -0.106563128144      -0.000084993899
23 1       0.771770000000       4.277830000000       5.714040000000       0.061596859619       0.106489093435      -0.000140931132
24 1      -1.543550000000       2.941080000000       5.714040000000      -0.122965874616       0.000057197706      -0.000107520699
25 1      -0.771770000000       4.277830000000      12.570870000000      -0.061573732940       0.106525802973      -0.000015764137
26 1       1.543540000000       2.941080000000      12.570870000000       0.123117142297      -0.000003351647       0.000002768110
27 1      -0.771770000000       1.604330000000      12.570870000000      -0.061556021788      -0.106541080365       0.000023208170
28 1       3.318820000000       3.074870000000      10.285260000000       0.061512295552      -0.106577768471      -0.000039243351
29 1       0.771770000000       1.336750000000      10.285260000000       0.061588234071       0.106539923514      -0.000089309689
30 1       3.550550000000       0.000000000000      10.285260000000      -0.123013878111       0.000040163178      -0.000063729995
