ITEM: TIMESTEP
0
ITEM: NUMBER OF ATOMS
80
ITEM: BOX BOUNDS pp pp pp
0.0000000000000000e+00 9.4109445550000004e+00
0.0000000000000000e+00 9.4109445550000004e+00
0.0000000000000000e+00 9.4109445550000004e+00
ITEM: ATOMS id type v_vir_xx v_vir_yy v_vir_zz v_vir_xy v_vir_xz v_vir_yz
1 2      -5.541958786446      -5.542021501404      -5.541999993500      -1.026877709062       1.026868691445       1.026875804691
2 2      -4.751973338309      -4.648230172369      -4.781661939873      -0.000007734236       0.583799768923       0.000006536401
3 2      -4.781627842351      -4.751908976385      -4.648158610027       0.583835498682      -0.000002472789      -0.000009627964
4 2      -4.781703144802      -4.752050244343      -4.648243424617      -0.583798523612       0.000015428935      -0.000018729673
5 2      -4.648158610027      -4.781627842351      -4.751908976385      -0.000002472789      -0.000009627964       0.583835498682
6 2      -4.648187367301      -4.781632893604      -4.751996281419      -0.000019488221       0.000001366448      -0.583824771142
7 2      -4.752050244343      -4.648243424617      -4.781703144802      -0.000018729673      -0.583798523612       0.000015428935
8 2      -5.541999993500      -5.541958786446      -5.542021501404       1.026868691445       1.026875804691      -1.026877709062
9 2      -5.542028852840      -5.542028852840      -5.542028852840      -1.026882436863      -1.026882436863      -1.026882436863
10 2      -5.542021501404      -5.541999993500      -5.541958786446       1.026875804691      -1.026877709062       1.026868691445
11 2      -4.751996281419      -4.648187367301      -4.781632893604       0.000001366448      -0.583824771142      -0.000019488221
12 2      -4.648243424617      -4.781703144802      -4.752050244343       0.000015428935      -0.000018729673      -0.583798523612
13 2      -4.648230172369      -4.781661939873      -4.751973338309       0.000006536401      -0.000007734236       0.583799768923
14 2      -4.781632893604      -4.751996281419      -4.648187367301      -0.583824771142      -0.000019488221       0.000001366448
15 2      -4.781661939873      -4.751973338309      -4.648230172369       0.583799768923       0.000006536401      -0.000007734236
16 2      -4.751908976385      -4.648158610027      -4.781627842351      -0.000009627964       0.583835498682      -0.000002472789
17 2      -5.541992659740      -5.541929940784      -5.541951444841      -1.026862061026       1.026871079639       1.026863966459
18 2      -4.752027538405      -4.648313498829      -4.781701236146       0.000016533191       0.583805321657      -0.000002045713
19 2      -4.781664861059      -4.752027120159      -4.648283569035       0.583818029452      -0.000002024295       0.000000830042
20 2      -4.781660032148      -4.751950630502      -4.648300249178      -0.583806566963       0.000014973230      -0.000008270919
21 2      -4.648283569035      -4.781664861059      -4.752027120159      -0.000002024295       0.000000830042       0.583818029452
22 2      -4.648254815206      -4.781659809634      -4.751939817900      -0.000010908963       0.000025631497      -0.583828759535
23 2      -4.751950630502      -4.648300249178      -4.781660032148      -0.000008270919      -0.583806566963       0.000014973230
24 2      -5.541951444841      -5.541992659740      -5.541929940784       1.026871079639       1.026863966459      -1.026862061026
25 2      -5.541922606584      -5.541922606584      -5.541922606584      -1.026857336247      -1.026857336247      -1.026857336247
26 2      -5.541929940784      -5.541951444841      -5.541992659740       1.026863966459      -1.026862061026       1.026871079639
27 2      -4.751939817900      -4.648254815205      -4.781659809634       0.000025631497      -0.583828759535      -0.000010908963
28 2      -4.648300249178      -4.781660032148      -4.751950630502       0.000014973230      -0.000008270919      -0.583806566963
29 2      -4.648313498829      -4.781701236146      -4.752027538405      -0.000002045713       0.000016533191       0.583805321657
30 2      -4.781659809634      -4.751939817900      -4.648254815205      -0.583828759535      -0.000010908963       0.000025631497
31 2      -4.781701236146      -4.752027538405      -4.648313498829       0.583805321657      -0.000002045713       0.000016533191
32 2      -4.752027120159      -4.648283569035      -4.781664861059       0.000000830042       0.583818029452      -0.000002024295
33 1       3.461156366554       3.394286097251       2.931552476334      -0.376836368566       0.710448674961       0.243960385263
34 1       3.461151606415       3.394254868237       2.931543095395       0.376827627292      -0.710441229357       0.243963946176
35 1       3.394260687128       2.931514291929       3.461086815389      -0.243974320670      -0.376836405867      -0.710431942518
36 1       3.394283906074       2.931558460538       3.461126747874       0.243985265849      -0.376803365971       0.710401885286
37 1       3.394257242018       2.931511848568       3.461099547573      -0.243953138670       0.376835367769       0.710430989894
38 1       3.394269130119       2.931530103747       3.461138254699       0.243973056001       0.376816223560      -0.710418595433
39 1       3.461086815389       3.394260687128       2.931514291929      -0.376836405867      -0.710431942518      -0.243974320670
40 1       3.461099547573       3.394257242018       2.931511848568       0.376835367769       0.710430989894      -0.243953138670
41 1       2.931530103747       3.461138254699       3.394269130119      -0.710418595433       0.243973056001       0.376816223560
42 1       2.931523240880       3.461123008236       3.394255630560       0.710451371042      -0.243971339626       0.376828841854
43 1       2.931514291929       3.461086815389       3.394260687128      -0.710431942518      -0.243974320670      -0.376836405867
44 1       2.931552476334       3.461156366554       3.394286097251       0.710448674961       0.243960385263      -0.376836368566
45 1       2.931558539184       3.461128993573       3.394298187982      -0.710441162938      -0.243958798826      -0.376823691938
46 1       2.931511848568       3.461099547573       3.394257242018       0.710430989894      -0.243953138670       0.376835367769
47 1       2.931543095395       3.461151606415       3.394254868237      -0.710441229357       0.243963946176       0.376827627292
48 1       2.931558460538       3.461126747874       3.394283906074       0.710401885286       0.243985265849      -0.376803365971
49 1       3.461123008236       3.394255630560       2.931523240880       0.376828841854       0.710451371042      -0.243971339626
50 1       3.461128993573       3.394298187982       2.931558539184      -0.376823691938      -0.710441162938      -0.243958798826
51 1       3.394255630560       2.931523240880       3.461123008236      -0.243971339626       0.376828841854       0.710451371042
52 1       3.394254868237       2.931543095395       3.461151606415       0.243963946176       0.376827627292      -0.710441229357
53 1       3.394286097251       2.931552476334       3.461156366554       0.243960385263      -0.376836368566       0.710448674961
54 1       3.394298187982       2.931558539184       3.461128993573      -0.243958798826      -0.376823691938      -0.710441162938
55 1       3.461126747874       3.394283906074       2.931558460538      -0.376803365971       0.710401885286       0.243985265849
56 1       3.461138254699       3.394269130119       2.931530103747       0.376816223560      -0.710418595433       0.243973056001
57 1       3.461138907166       3.394282116925       2.931534859738      -0.376837477924       0.710436689300       0.243963641982
58 1       3.461135323811       3.394301761545       2.931568240370       0.376827669048      -0.710445392651       0.243992152136
59 1       3.394267373777       2.931537449747       3.461146137423      -0.243996986357      -0.376810296744      -0.710406961677
60 1       3.394260354698       2.931524240287       3.461115363561       0.243993367834      -0.376832486748       0.710444764846
61 1       3.394314808459       2.931577777567       3.461160060882      -0.244000744747       0.376808196530       0.710422164850
62 1       3.394286720910       2.931528579294       3.461112197667       0.243973498915       0.376838186929      -0.710426807368
63 1       3.461146137423       3.394267373777       2.931537449747      -0.376810296744      -0.710406961677      -0.243996986357
64 1       3.461160060882       3.394314808459       2.931577777567       0.376808196530       0.710422164850      -0.244000744747
65 1       2.931528579294       3.461112197667       3.394286720910      -0.710426807368       0.243973498915       0.376838186929
66 1       2.931557152062       3.461154771459       3.394284803703       0.710427494435      -0.243977439886       0.376837302633
67 1       2.931537449747       3.461146137423       3.394267373777      -0.710406961677      -0.243996986357      -0.376810296744
68 1       2.931534859738       3.461138907166       3.394282116925       0.710436689300       0.243963641982      -0.376837477924
69 1       2.931559740393       3.461175429922       3.394286219481      -0.710451956664      -0.243972556351      -0.376839313095
70 1       2.931577777567       3.461160060882       3.394314808459       0.710422164850      -0.244000744747       0.376808196530
71 1       2.931568240370       3.461135323811       3.394301761545      -0.710445392651       0.243992152136       0.376827669048
72 1       2.931524240287       3.461115363561       3.394260354698       0.710444764846       0.243993367834      -0.376832486748
73 1       3.461154771459       3.394284803703       2.931557152062       0.376837302633       0.710427494435      -0.243977439886
74 1       3.461175429922       3.394286219481       2.931559740393      -0.376839313095      -0.710451956664      -0.243972556351
75 1       3.394284803703       2.931557152062       3.461154771459      -0.243977439886       0.376837302633       0.710427494435
76 1       3.394301761545       2.931568240370       3.461135323811       0.243992152136       0.376827669048      -0.710445392651
77 1       3.394282116925       2.931534859738       3.461138907166       0.243963641982      -0.376837477924       0.710436689300
78 1       3.394286219481       2.931559740393       3.461175429922      -0.243972556351      -0.376839313095      -0.710451956664
79 1       3.461115363561       3.394260354698       2.931524240287      -0.376832486748       0.710444764846       0.243993367834
80 1       3.461112197667       3.394286720910       2.931528579294       0.376838186929      -0.710426807368       0.243973498915
