ITEM: TIMESTEP
0
ITEM: NUMBER OF ATOMS
30
ITEM: BOX BOUNDS xy xz yz pp pp pp
-2.5318577910000002e+00 5.0637156020000003e+00 -2.5318577910000002e+00
0.0000000000000000e+00 4.3853067670000003e+00 0.0000000000000000e+00
0.0000000000000000e+00 1.3631884907000000e+01 0.0000000000000000e+00
ITEM: ATOMS id type x y z fx fy fz
1 2       0.000000000000       0.000000000000       1.964200000000       0.000016938970      -0.000012068660      -0.009116682939
2 2       0.000000006667       2.923540000000       0.307790000000       0.000007424722      -0.000034437712       0.009053600539
3 2       2.531860003333       1.461770000000       2.579760000000      -0.000014541974      -0.000008346091       0.009074860489
4 2       0.000000006667       2.923540000000       4.236190000000       0.000033320529      -0.000029520894      -0.009117810390
5 2       2.531860003333       1.461770000000       6.508160000000      -0.000042171058      -0.000020239123      -0.009077509390
6 2       0.000000000000       0.000000000000       4.851740000000      -0.000007469343       0.000020395390       0.009123308193
7 2       0.000000006667       2.923540000000       7.123730000000       0.000043064464      -0.000033963486       0.009073526585
8 2       0.000000000000       0.000000000000       8.780140000000       0.000038864165      -0.000012375103      -0.009115345457
9 2       0.000000006667       2.923540000000      11.052130000000       0.000000787197      -0.000027389071      -0.009102023547
10 2       2.531860003333       1.461770000000       9.395700000000      -0.000035279850      -0.000005254742       0.009092515371
11 2       0.000000000000       0.000000000000      11.667680000000       0.000022063611       0.000019752583       0.009125968701
12 2       2.531860003333       1.461770000000      13.324100000000      -0.000018850407      -0.000018138201      -0.009056120550
13 1      -0.767259996970       1.328940000000       3.407970000000       0.021704922108      -0.037595472329       0.000059706255
14 1       1.534530000000       0.000000000000       3.407970000000      -0.043425598130      -0.000003619285       0.000030269862
15 1       1.764600006970       3.056370000000       3.407970000000       0.021637330618       0.037597000148       0.000056383057
16 1       3.299120000303       0.132830000000       1.135990000000      -0.021696151407       0.037624798710       0.000034076538
17 1       3.299120006364       2.790700000000       1.135990000000      -0.021727533497      -0.037523528476       0.000046112438
18 1       0.997330003333       1.461770000000       1.135990000000       0.043461997961      -0.000043039551       0.000027409646
19 1       1.764600006364       2.790700000000       7.951930000000       0.021704053306      -0.037527365060       0.000059053077
20 1       4.066390003333       1.461770000000       7.951930000000      -0.043485981241      -0.000048701927       0.000045708812
21 1       1.764600000303       0.132830000000       7.951930000000       0.021663565956       0.037635889062       0.000073536059
22 1       0.767260003636       1.594600000000       5.679960000000      -0.021719592601       0.037568110792      -0.000106980092
23 1       0.767260009697       4.252470000000       5.679960000000      -0.021636760959      -0.037552366453      -0.000094968198
24 1      -1.534529993333       2.923540000000       5.679960000000       0.043461532005       0.000013355719      -0.000098648497
25 1      -0.767259990303       4.252470000000      12.495900000000       0.021658944128      -0.037539988715      -0.000069393483
26 1       1.534530006667       2.923540000000      12.495900000000      -0.043445557954       0.000002694852      -0.000075468065
27 1      -0.767259996364       1.594600000000      12.495900000000       0.021735591807       0.037565903891      -0.000089545617
28 1      -1.764595595030       3.056370000000      10.223910000000      -0.021668866645       0.037596280653       0.000050213556
29 1       0.767260003030       1.328940000000      10.223910000000      -0.021664863832      -0.037594254068       0.000053715748
30 1       3.529190000000       0.000000000000      10.223910000000       0.043398817349      -0.000014112853       0.000040531302
