30
Config_type=bulk_alpha_phase Weight=1.0 Lattice="5.063715602 0.000000000 0.000000000 -2.531857801 4.385306767 0.000000000 0.000000000 0.000000000 13.631884907" Energy=-255.14795260 Virial="0.07815 -0.00003 -0.00000 -0.00003 0.07804 -0.00007 -0.00000 -0.00007 0.05177" pbc="T T T" Properties=species:S:1:pos:R:3:forces:R:3
Ga	      0.00000      0.00000      1.96420         0.000036     -0.000015     -0.006758
Ga	      0.00000      2.92354      0.30779         0.000025     -0.000044      0.006649
Ga	      2.53186      1.46177      2.57976        -0.000033     -0.000013      0.006725
Ga	      0.00000      2.92354      4.23619         0.000019     -0.000036     -0.006808
Ga	      2.53186      1.46177      6.50816        -0.000033     -0.000019     -0.006709
Ga	      0.00000      0.00000      4.85174         0.000010      0.000022      0.006777
Ga	      0.00000      2.92354      7.12373         0.000031     -0.000048      0.006687
Ga	      0.00000      0.00000      8.78014         0.000020     -0.000014     -0.006756
Ga	      0.00000      2.92354     11.05213        -0.000000     -0.000027     -0.006765
Ga	      2.53186      1.46177      9.39570        -0.000030     -0.000018      0.006752
Ga	      0.00000      0.00000     11.66768         0.000006      0.000017      0.006821
Ga	      2.53186      1.46177     13.32410        -0.000040     -0.000020     -0.006675
O	     -0.76726      1.32894      3.40797        -0.002821      0.004955      0.000107
O	      1.53453      0.00000      3.40797         0.005740     -0.000009      0.000074
O	      1.76460      3.05637      3.40797        -0.002917     -0.004942      0.000094
O	      3.29912      0.13283      1.13599         0.002821     -0.004924      0.000024
O	      3.29912      2.79070      1.13599         0.002826      0.005014      0.000043
O	      0.99733      1.46177      1.13599        -0.005698     -0.000021      0.000020
O	      1.76460      2.79070      7.95193        -0.002858      0.005039      0.000068
O	      4.06639      1.46177      7.95193         0.005701     -0.000032      0.000064
O	      1.76460      0.13283      7.95193        -0.002880     -0.004931      0.000088
O	      0.76726      1.59460      5.67996         0.002805     -0.004999     -0.000117
O	      0.76726      4.25247      5.67996         0.002929      0.004998     -0.000098
O	     -1.53453      2.92354      5.67996        -0.005716      0.000035     -0.000101
O	     -0.76726      4.25247     12.49590        -0.002878      0.004988     -0.000096
O	      1.53453      2.92354     12.49590         0.005703      0.000015     -0.000094
O	     -0.76726      1.59460     12.49590        -0.002785     -0.004967     -0.000121
O	      3.29912      3.05637     10.22391         0.002947     -0.004997      0.000044
O	      0.76726      1.32894     10.22391         0.002904      0.004986      0.000039
O	      3.52919      0.00000     10.22391        -0.005834      0.000007      0.000020
