40
Config_type=bulk_kappa_phase Weight=1.0 Lattice="8.890152506 0.000000000 0.000000000 0.000000000 5.177014882 0.000000000 0.000000000 0.000000000 9.512724407" Energy=-340.36479280 Virial="-12.96339 0.00068 0.00143 0.00068 -14.09471 0.02805 0.00143 0.02805 -12.38765" pbc="T T T" Properties=species:S:1:pos:R:3:forces:R:3
Ga	      1.39051      1.60484      8.45339         0.000339      0.006248     -0.001668
Ga	      3.16473      4.19334      8.45340         0.000099      0.005649     -0.001415
Ga	      5.85989      0.91043      7.59974         0.002450     -0.021541     -0.007169
Ga	      7.58549      3.49894      7.59974        -0.002974     -0.020721     -0.007809
Ga	      4.79151      3.50743      5.67179         0.003277      0.002685     -0.003820
Ga	      1.49276      3.55373      5.79798         0.005924      0.015168     -0.000848
Ga	      3.06246      0.96522      5.79798        -0.005879      0.016154     -0.001217
Ga	      8.65387      0.91892      5.67179        -0.003601      0.003244     -0.004289
Ga	      1.41456      1.67766      2.84341         0.003436      0.020270     -0.009580
Ga	      3.14068      4.26617      2.84341        -0.004051      0.019328     -0.009177
Ga	      5.83486      0.98544      3.69726         0.000235     -0.009683     -0.003901
Ga	      7.61052      3.57395      3.69726         0.000694     -0.011714     -0.004524
Ga	      4.20933      1.66992      0.91585        -0.001226     -0.001269     -0.003823
Ga	      5.93759      4.21163      1.04131         0.005971     -0.015044      0.000086
Ga	      7.50779      1.62312      1.04130        -0.007266     -0.015317     -0.001126
Ga	      0.34590      4.25843      0.91585         0.000409     -0.001175     -0.003834
O	      7.42245      1.79834      4.47714         0.010568     -0.010515     -0.008875
O	      0.04484      0.78722      0.05860         0.009908      0.002740      0.013116
O	      7.44970      0.08550      7.02878        -0.003141     -0.006481      0.007085
O	      7.37154      5.01855      2.14558         0.008675     -0.018396     -0.001592
O	      6.02293      4.38685      4.47714        -0.010231     -0.010963     -0.008560
O	      7.54021      3.38319      9.49270        -0.001288     -0.012735     -0.004501
O	      5.99568      2.67401      7.02879         0.003919     -0.006368      0.007308
O	      6.07385      2.43004      2.14558        -0.008757     -0.017812     -0.001719
O	      1.45969      1.79330      4.73641         0.002838      0.012956     -0.001596
O	      2.97786      0.79109      9.23382         0.009090      0.011085     -0.010149
O	      1.63019      0.15730      6.90286        -0.008132      0.017355     -0.001697
O	      1.55081      5.09095      2.27260         0.002980      0.009187      0.008825
O	      0.06585      4.39021      4.81516        -0.008604     -0.001751      0.014350
O	      1.57737      3.37960      9.23382        -0.007870      0.011005     -0.010338
O	      0.14788      2.46307      6.97899        -0.001654     -0.008246      0.009322
O	      8.85198      2.71335      2.22304        -0.000208      0.009059      0.007337
O	      4.48938      1.80171      4.81516         0.008724     -0.002605      0.014453
O	      5.90518      0.79468      9.49270         0.002295     -0.012944     -0.004480
O	      4.40734      5.05158      6.97899         0.000233     -0.008386      0.009023
O	      4.59341      0.12484      2.22305        -0.000772      0.009038      0.007884
O	      3.09554      4.38180      4.73641        -0.002245      0.013392     -0.001800
O	      4.51040      3.37572      0.05860        -0.009813      0.002433      0.013022
O	      2.92503      2.74580      6.90287         0.007805      0.017462     -0.001382
O	      3.00443      2.50244      2.27260        -0.002158      0.009209      0.009077
