ITEM: TIMESTEP
0
ITEM: NUMBER OF ATOMS
20
ITEM: BOX BOUNDS xy xz yz pp pp pp
-1.3763598392300000e+00 1.2335842641690000e+01 0.0000000000000000e+00
0.0000000000000000e+00 3.0548637240000001e+00 -1.3763598392300000e+00
0.0000000000000000e+00 5.6555203896090003e+00 0.0000000000000000e+00
ITEM: ATOMS id type x y z fx fy fz
1 2       1.526294564369       1.527430000000       1.774734631369       0.056036724473       0.000024743939      -0.120095267010
2 2       3.265266187616       0.000000000000       3.880785766441      -0.056060652540      -0.000024743898       0.120086423851
3 2       0.021305762967       0.000000000000       4.496662192612      -0.007001747928      -0.000028271019      -0.006950448160
4 2       4.770254989017       1.527430000000       1.158858205198       0.006997138959       0.000028271014       0.006915460663
5 2       7.694217330578       0.000000000000       1.774725702423       0.056087801622      -0.000024744269      -0.120004128027
6 2       9.433186589185       1.527430000000       3.880786553898      -0.056061731621       0.000024744221       0.120061530514
7 2       6.189226164536       1.527430000000       4.496662980068      -0.006979103880       0.000028271024      -0.007034379812
8 2      10.938175390587       0.000000000000       1.158858992655       0.007078682184      -0.000028271069       0.006863041877
9 1       5.772968019117       0.000000000000       1.446274736505      -0.085658146174      -0.000034446767       0.021500699665
10 1      -0.981407267133       1.527430000000       4.209245661305       0.085725267328       0.000034446795      -0.021508505565
11 1       1.360198465210       0.000000000000       3.180681164223      -0.014615972711      -0.000010969488       0.122008621967
12 1       3.431372003177       1.527430000000       2.474841598227       0.014541635939       0.000010969482      -0.121998885841
13 1       2.889099029044       1.527430000000       5.040916806502      -0.056906713339       0.000025381644       0.071452115564
14 1       1.902461722940       0.000000000000       0.614603591308       0.056918997521      -0.000025381601      -0.071429970706
15 1      11.940888420687       1.527430000000       1.446275523961      -0.085658827103       0.000034446875       0.021505884898
16 1       5.186513134437       0.000000000000       4.209246448762       0.085738979429      -0.000034446811      -0.021495791747
17 1       7.528118866780       1.527430000000       3.180681951679      -0.014591173192       0.000010969806       0.121929043510
18 1       9.599294769386       0.000000000000       2.474832669281       0.014439261962      -0.000010969806      -0.121853493597
19 1       9.057019430614       0.000000000000       5.040917593959      -0.056887287244      -0.000025381651       0.071395236136
20 1       8.070394205552       1.527430000000       0.614597027001       0.056856866314       0.000025381579      -0.071347188181
