20
Config_type=bulk_beta_phase Weight=1.0 Lattice="11.986001414 0.000000000 -2.916981965 0.000000000 3.054863724 0.000000000 0.000000000 0.000000000 5.820590802" Energy=-170.54985240 Virial="6.38761 0.00013 0.18611 0.00013 7.09324 0.00001 0.18611 0.00001 7.07400" pbc="T T T" Properties=species:S:1:pos:R:3:forces:R:3
Ga	      1.90267      1.52743      1.36349         0.030778      0.000036     -0.005019
Ga	      4.09033      0.00000      2.99861        -0.030776     -0.000006      0.005014
Ga	      1.08400      0.00000      4.36410         0.011698     -0.000017     -0.012775
Ga	      4.90900      1.52743     -0.00200        -0.011714      0.000051      0.012739
Ga	      7.89567      0.00000     -0.09501         0.030842     -0.000005     -0.004907
Ga	     10.08333      1.52743      1.54012        -0.030779      0.000038      0.004993
Ga	      7.07700      1.52743      2.90561         0.011700      0.000050     -0.012883
Ga	     10.90200      0.00000     -1.46049        -0.011653     -0.000015      0.012672
O	      5.95124      0.00000      0.04016        -0.001868     -0.000022     -0.012112
O	      0.04176      1.52743      4.32194         0.001952      0.000050      0.012088
O	      2.07374      0.00000      2.76884        -0.003246      0.000004      0.000698
O	      3.91927      1.52743      1.59326         0.003234     -0.000277     -0.000669
O	      3.99916      1.52743      4.21479        -0.012476      0.000036      0.013114
O	      1.99384      0.00000      0.14731         0.012476     -0.000007     -0.013113
O	     11.94424      1.52743     -1.41833        -0.001952      0.000052     -0.012109
O	      6.03476      0.00000      2.86345         0.002001     -0.000024      0.012100
O	      8.06674      1.52743      1.31035        -0.003252      0.000026      0.000654
O	      9.91227      0.00000      0.13476         0.003072      0.000003     -0.000542
O	      9.99216      0.00000      2.75630        -0.012446     -0.000006      0.013104
O	      7.98685      1.52743     -1.31119         0.012410      0.000034     -0.013046
