ITEM: TIMESTEP
0
ITEM: NUMBER OF ATOMS
80
ITEM: BOX BOUNDS pp pp pp
0.0000000000000000e+00 9.5991634460000004e+00
0.0000000000000000e+00 9.5991634460000004e+00
0.0000000000000000e+00 9.5991634460000004e+00
ITEM: ATOMS id type c_pe_atom
1 2      -7.211957718848
2 2      -7.011115944897
3 2      -7.011195104619
4 2      -7.011133971613
5 2      -7.011195104619
6 2      -7.011171059891
7 2      -7.011133971613
8 2      -7.211957718848
9 2      -7.211955042667
10 2      -7.211957718848
11 2      -7.011171059891
12 2      -7.011133971613
13 2      -7.011115944897
14 2      -7.011171059891
15 2      -7.011115944897
16 2      -7.011195104619
17 2      -7.211960394618
18 2      -7.011149156121
19 2      -7.011156359071
20 2      -7.011131129633
21 2      -7.011156359071
22 2      -7.011180404049
23 2      -7.011131129633
24 2      -7.211960394618
25 2      -7.211963069933
26 2      -7.211960394618
27 2      -7.011180404049
28 2      -7.011131129633
29 2      -7.011149156121
30 2      -7.011180404049
31 2      -7.011149156121
32 2      -7.011156359071
33 1      -5.159222395271
34 1      -5.159306763410
35 1      -5.159242718193
36 1      -5.159304004108
37 1      -5.159270978886
38 1      -5.159208559037
39 1      -5.159242718193
40 1      -5.159270978886
41 1      -5.159208559037
42 1      -5.159241881964
43 1      -5.159242718193
44 1      -5.159222395271
45 1      -5.159281219400
46 1      -5.159270978886
47 1      -5.159306763410
48 1      -5.159304004108
49 1      -5.159241881964
50 1      -5.159281219400
51 1      -5.159241881964
52 1      -5.159306763410
53 1      -5.159222395271
54 1      -5.159281219400
55 1      -5.159304004108
56 1      -5.159208559037
57 1      -5.159223280018
58 1      -5.159283738393
59 1      -5.159264966511
60 1      -5.159292399881
61 1      -5.159269317800
62 1      -5.159243017861
63 1      -5.159264966511
64 1      -5.159269317800
65 1      -5.159243017861
66 1      -5.159259900812
67 1      -5.159264966511
68 1      -5.159223280018
69 1      -5.159253175440
70 1      -5.159269317800
71 1      -5.159283738393
72 1      -5.159292399881
73 1      -5.159259900812
74 1      -5.159253175440
75 1      -5.159259900812
76 1      -5.159283738393
77 1      -5.159223280018
78 1      -5.159253175440
79 1      -5.159292399881
80 1      -5.159243017861
