ITEM: TIMESTEP
0
ITEM: NUMBER OF ATOMS
80
ITEM: BOX BOUNDS pp pp pp
0.0000000000000000e+00 9.5991634460000004e+00
0.0000000000000000e+00 9.5991634460000004e+00
0.0000000000000000e+00 9.5991634460000004e+00
ITEM: ATOMS id type x y z fx fy fz
1 2       7.199370000000       2.399790000000       2.399790000000       0.000014911732       0.000013856490       0.000009248011
2 2       7.199370000000       4.441960000000       4.799580000000       0.000021626177      -0.002962089895      -0.000005184686
3 2       0.000000000000       7.199370000000       0.357620000000      -0.000020470864       0.000014432403       0.002957758679
4 2       0.000000000000       2.399790000000       4.441960000000      -0.000023559816       0.000019854678      -0.002961113390
5 2       0.357620000000       0.000000000000       7.199370000000       0.002957758680      -0.000020470864       0.000014432403
6 2       0.357620000000       4.799580000000       2.399790000000       0.002954295706      -0.000008272880       0.000012664160
7 2       2.399790000000       4.441960000000       0.000000000000       0.000019854678      -0.002961113390      -0.000023559816
8 2       2.399790000000       7.199370000000       2.399790000000       0.000009248011       0.000014911732       0.000013856490
9 2       2.399790000000       2.399790000000       2.399790000000       0.000016059894       0.000016059894       0.000016059894
10 2       2.399790000000       2.399790000000       7.199370000000       0.000013856490       0.000009248011       0.000014911732
11 2       2.399790000000       0.357620000000       4.799580000000       0.000012664160       0.002954295706      -0.000008272880
12 2       4.441960000000       0.000000000000       2.399790000000      -0.002961113390      -0.000023559815       0.000019854678
13 2       4.441960000000       4.799580000000       7.199370000000      -0.002962089895      -0.000005184686       0.000021626177
14 2       4.799580000000       2.399790000000       0.357620000000      -0.000008272880       0.000012664160       0.002954295706
15 2       4.799580000000       7.199370000000       4.441960000000      -0.000005184686       0.000021626177      -0.002962089895
16 2       7.199370000000       0.357620000000       0.000000000000       0.000014432403       0.002957758680      -0.000020470864
17 2       2.399790000000       7.199370000000       7.199370000000      -0.000002674652       0.000022656936       0.000003922441
18 2       2.399790000000       9.241540000000       0.000000000000       0.000005588978      -0.002946127987      -0.000013757886
19 2       4.799580000000       2.399790000000       5.157200000000       0.000001529394       0.000012784220       0.002980017749
20 2       4.799580000000       7.199370000000       9.241540000000      -0.000001559023       0.000021507591      -0.002947105523
21 2       5.157200000000       4.799580000000       2.399790000000       0.002980017749       0.000001529394       0.000012784220
22 2       5.157200000000       0.000000000000       7.199370000000       0.002983481032      -0.000016844913       0.000028697255
23 2       7.199370000000       9.241540000000       4.799580000000       0.000021507591      -0.002947105523      -0.000001559023
24 2       7.199370000000       2.399790000000       7.199370000000       0.000003922441      -0.000002674652       0.000022656936
25 2       7.199370000000       7.199370000000       7.199370000000       0.000019520165       0.000019520165       0.000019520165
26 2       7.199370000000       7.199370000000       2.399790000000       0.000022656936       0.000003922441      -0.000002674652
27 2       7.199370000000       5.157200000000       0.000000000000       0.000028697255       0.002983481032      -0.000016844913
28 2       9.241540000000       4.799580000000       7.199370000000      -0.002947105523      -0.000001559023       0.000021507591
29 2       9.241540000000       0.000000000000       2.399790000000      -0.002946127987      -0.000013757886       0.000005588978
30 2       0.000000000000       7.199370000000       5.157200000000      -0.000016844913       0.000028697255       0.002983481032
31 2       0.000000000000       2.399790000000       9.241540000000      -0.000013757886       0.000005588978      -0.002946127987
32 2       2.399790000000       5.157200000000       4.799580000000       0.000012784220       0.002980017749       0.000001529394
33 1       8.524560000000       5.893610000000       1.528160000000      -0.045614980447       0.007301962368       0.048698141355
34 1       8.524560000000       3.705550000000       3.271430000000      -0.045609053212      -0.007287670460      -0.048794214391
35 1       8.505130000000       1.528160000000       1.074600000000      -0.007281681875       0.048716089128       0.045660596938
36 1       8.505130000000       3.271430000000       5.874180000000      -0.007275389408      -0.048812032843       0.045684231915
37 1       1.094030000000       3.271430000000       1.074600000000       0.007282271169      -0.048815788982       0.045665042607
38 1       1.094030000000       1.528160000000       5.874180000000       0.007299315556       0.048716900979       0.045694213600
39 1       1.074600000000       8.505130000000       1.528160000000       0.045660596938      -0.007281681875       0.048716089128
40 1       1.074600000000       1.094030000000       3.271430000000       0.045665042607       0.007282271169      -0.048815788982
41 1       1.528160000000       5.874180000000       1.094030000000       0.048716900979       0.045694213600       0.007299315556
42 1       1.528160000000       3.724980000000       3.705550000000       0.048698172138      -0.045644349615      -0.007303029183
43 1       1.528160000000       1.074600000000       8.505130000000       0.048716089128       0.045660596938      -0.007281681875
44 1       1.528160000000       8.524560000000       5.893610000000       0.048698141355      -0.045614980447       0.007301962368
45 1       3.271430000000       3.724980000000       5.893610000000      -0.048796915827      -0.045644741583       0.007293965964
46 1       3.271430000000       1.074600000000       1.094030000000      -0.048815788982       0.045665042607       0.007282271169
47 1       3.271430000000       8.524560000000       3.705550000000      -0.048794214391      -0.045609053212      -0.007287670460
48 1       3.271430000000       5.874180000000       8.505130000000      -0.048812032843       0.045684231915      -0.007275389408
49 1       3.724980000000       3.705550000000       1.528160000000      -0.045644349615      -0.007303029183       0.048698172138
50 1       3.724980000000       5.893610000000       3.271430000000      -0.045644741583       0.007293965964      -0.048796915827
51 1       3.705550000000       1.528160000000       3.724980000000      -0.007303029183       0.048698172138      -0.045644349615
52 1       3.705550000000       3.271430000000       8.524560000000      -0.007287670460      -0.048794214391      -0.045609053212
53 1       5.893610000000       1.528160000000       8.524560000000       0.007301962368       0.048698141355      -0.045614980447
54 1       5.893610000000       3.271430000000       3.724980000000       0.007293965964      -0.048796915827      -0.045644741583
55 1       5.874180000000       8.505130000000       3.271430000000       0.045684231915      -0.007275389408      -0.048812032843
56 1       5.874180000000       1.094030000000       1.528160000000       0.045694213600       0.007299315556       0.048716900979
57 1       3.724980000000       1.094030000000       6.327740000000      -0.045648451863       0.007294743876       0.048717687384
58 1       3.724980000000       8.505130000000       8.071010000000      -0.045631101184      -0.007277392459      -0.048785905484
59 1       3.705550000000       6.327740000000       5.874180000000      -0.007303444715       0.048724064311       0.045694095358
60 1       3.705550000000       8.071010000000       1.074600000000      -0.007292968817      -0.048796036148       0.045657553514
61 1       5.893610000000       8.071010000000       5.874180000000       0.007300961319      -0.048795907190       0.045687114937
62 1       5.893610000000       6.327740000000       1.074600000000       0.007300681289       0.048726863018       0.045670853135
63 1       5.874180000000       3.705550000000       6.327740000000       0.045694095358      -0.007303444715       0.048724064311
64 1       5.874180000000       5.893610000000       8.071010000000       0.045687114937       0.007300961319      -0.048795907190
65 1       6.327740000000       1.074600000000       5.893610000000       0.048726863018       0.045670853135       0.007300681289
66 1       6.327740000000       8.524560000000       8.505130000000       0.048714039811      -0.045608704667      -0.007278803342
67 1       6.327740000000       5.874180000000       3.705550000000       0.048724064311       0.045694095358      -0.007303444715
68 1       6.327740000000       3.724980000000       1.094030000000       0.048717687384      -0.045648451863       0.007294743876
69 1       8.071010000000       8.524560000000       1.094030000000      -0.048786836547      -0.045605787607       0.007285974007
70 1       8.071010000000       5.874180000000       5.893610000000      -0.048795907190       0.045687114937       0.007300961319
71 1       8.071010000000       3.724980000000       8.505130000000      -0.048785905484      -0.045631101184      -0.007277392459
72 1       8.071010000000       1.074600000000       3.705550000000      -0.048796036148       0.045657553514      -0.007292968817
73 1       8.524560000000       8.505130000000       6.327740000000      -0.045608704667      -0.007278803342       0.048714039811
74 1       8.524560000000       1.094030000000       8.071010000000      -0.045605787607       0.007285974007      -0.048786836547
75 1       8.505130000000       6.327740000000       8.524560000000      -0.007278803342       0.048714039811      -0.045608704667
76 1       8.505130000000       8.071010000000       3.724980000000      -0.007277392459      -0.048785905484      -0.045631101184
77 1       1.094030000000       6.327740000000       3.724980000000       0.007294743876       0.048717687384      -0.045648451863
78 1       1.094030000000       8.071010000000       8.524560000000       0.007285974007      -0.048786836547      -0.045605787607
79 1       1.074600000000       3.705550000000       8.071010000000       0.045657553514      -0.007292968817      -0.048796036148
80 1       1.074600000000       5.893610000000       6.327740000000       0.045670853135       0.007300681289       0.048726863018
