ITEM: TIMESTEP
0
ITEM: NUMBER OF ATOMS
20
ITEM: BOX BOUNDS xy xz yz pp pp pp
-1.4152871881489999e+00 1.2684735161049000e+01 0.0000000000000000e+00
0.0000000000000000e+00 3.1412639100000002e+00 -1.4152871881489999e+00
0.0000000000000000e+00 5.8154745014930000e+00 0.0000000000000000e+00
ITEM: ATOMS id type v_vir_xx v_vir_yy v_vir_zz v_vir_xy v_vir_xz v_vir_yz
1 2      -0.223694823885       0.184227827006      -2.271214772885      -0.000002093285       0.740298593788      -0.000002016196
2 2      -0.223692751016       0.184229066713      -2.271210231020      -0.000002093193       0.740301361389      -0.000002016148
3 2      -1.887328548406      -2.139483646454       0.154320400580       0.000010575275       0.074431793850       0.000004399401
4 2      -1.887329220157      -2.139483129811       0.154334168901       0.000010575291       0.074435089261       0.000004399002
5 2      -0.223692751017       0.184229066712      -2.271210231023       0.000002093193       0.740301361391       0.000002016148
6 2      -0.223694823884       0.184227827005      -2.271214772885       0.000002093285       0.740298593789       0.000002016196
7 2      -1.887329220161      -2.139483129815       0.154334168905      -0.000010575291       0.074435089257      -0.000004399002
8 2      -1.887328548409      -2.139483646462       0.154320400576      -0.000010575275       0.074431793841      -0.000004399401
9 1       1.902261878613       1.007635189088      -0.034827200224       0.000016749519       0.467188260845       0.000005177588
10 1       1.902261578658       1.007635284354      -0.034823416221       0.000016749449       0.467185313389       0.000005177290
11 1       1.864950410590       1.646741587250       3.068204843859       0.000005444360      -0.414943587785      -0.000000235365
12 1       1.864951744039       1.646743478082       3.068206958232       0.000005444469      -0.414941893787      -0.000000235266
13 1       0.987603097712       2.116776055396       1.959772605163       0.000002725319      -0.735976094659      -0.000004493923
14 1       0.987607599623       2.116777354318       1.959775925006       0.000002725455      -0.735973587541      -0.000004493969
15 1       1.902261578652       1.007635284349      -0.034823416218      -0.000016749449       0.467185313390      -0.000005177290
16 1       1.902261878610       1.007635189085      -0.034827200225      -0.000016749519       0.467188260843      -0.000005177588
17 1       1.864951744037       1.646743478080       3.068206958233      -0.000005444469      -0.414941893788       0.000000235266
18 1       1.864950410587       1.646741587242       3.068204843858      -0.000005444360      -0.414943587790       0.000000235365
19 1       0.987607599622       2.116777354316       1.959775924993      -0.000002725455      -0.735973587544       0.000004493969
20 1       0.987603097713       2.116776055396       1.959772605165      -0.000002725319      -0.735976094657       0.000004493923
