ITEM: TIMESTEP
0
ITEM: NUMBER OF ATOMS
160
ITEM: BOX BOUNDS pp pp pp
0.0000000000000000e+00 8.3792421939999997e+00
0.0000000000000000e+00 8.3792421939999997e+00
0.0000000000000000e+00 2.5137726581999999e+01
ITEM: ATOMS id type c_pe_atom
1 2      -4.602988992222
2 2      -4.422089115827
3 2      -4.420063137276
4 2      -4.565351143297
5 2      -4.552619473761
6 2      -4.622518542483
7 2      -4.474119333151
8 2      -4.429618347900
9 2      -4.451794827466
10 2      -4.418977144244
11 2      -4.410738042913
12 2      -4.554678919648
13 2      -4.604061992117
14 2      -4.544701942842
15 2      -4.419265502665
16 2      -4.439157188257
17 2      -4.489868442631
18 2      -4.612600819562
19 2      -4.476002910302
20 2      -4.439943796565
21 2      -4.974763087829
22 2      -4.899982047395
23 2      -5.091040204536
24 2      -4.757165944291
25 2      -4.900750875715
26 2      -5.202923259283
27 2      -5.175476646609
28 2      -4.725856869239
29 2      -5.163650575726
30 2      -5.022413818572
31 2      -4.897339821060
32 2      -4.888454885076
33 2      -4.851925145853
34 2      -4.808628640205
35 2      -4.858147685270
36 2      -4.797702525208
37 2      -5.036848901592
38 2      -4.827553243200
39 2      -5.163763472477
40 2      -5.179759861821
41 2      -4.893282759495
42 2      -4.990503399927
43 2      -4.909853084621
44 2      -4.848619471930
45 2      -4.816430236853
46 2      -4.796607523173
47 2      -4.867875417708
48 2      -5.027818555880
49 2      -4.866903237002
50 2      -5.184001106565
51 2      -5.201180364971
52 2      -4.860269647678
53 2      -4.783291933698
54 2      -4.863309000789
55 2      -4.852939113595
56 2      -4.854523648251
57 2      -4.905712941610
58 2      -4.892364260844
59 2      -4.850630823624
60 2      -5.170706543956
61 2      -4.791311874420
62 2      -4.749866316905
63 2      -4.759108472910
64 2      -4.769445872191
65 1     -11.027082517078
66 1     -11.079989423273
67 1     -10.983471967424
68 1     -11.015749723056
69 1     -11.000680452165
70 1     -10.873736967017
71 1     -11.008231595281
72 1     -10.655123160318
73 1     -10.962419923134
74 1     -10.643232517720
75 1     -10.967790811599
76 1     -10.942580672168
77 1     -11.168777505592
78 1     -10.967986547226
79 1     -10.973727584771
80 1     -10.918806587591
81 1     -10.958215158483
82 1     -11.044298159802
83 1     -10.947112951227
84 1     -10.987625036252
85 1     -11.194629208298
86 1     -11.024266666246
87 1     -11.055297669317
88 1     -10.977600793028
89 1     -10.972134968322
90 1     -11.025746871640
91 1     -10.650151380669
92 1     -11.055320569342
93 1     -10.969519402714
94 1     -11.024028271169
95 1     -10.912037730680
96 1     -10.874390802493
97 1     -10.873854286811
98 1     -10.871501344507
99 1     -10.957651378798
100 1     -10.961726311311
101 1     -11.042901476600
102 1     -10.640674908537
103 1     -10.606964260188
104 1     -10.969830807881
105 1     -10.648848842210
106 1     -10.979881286426
107 1     -11.009246561183
108 1     -10.927016668326
109 1     -10.994405625696
110 1     -11.092832354965
111 1     -11.034256391122
112 1     -10.968363421893
113 1     -11.179566700307
114 1     -11.034155670217
115 1     -11.005525889981
116 1     -10.995523550812
117 1     -11.012048523304
118 1     -11.038881030456
119 1     -10.991476931183
120 1     -11.183096074292
121 1     -10.989812116791
122 1     -10.982146325190
123 1     -10.879660477963
124 1     -10.977431699370
125 1     -10.945472737791
126 1     -11.049635681075
127 1     -11.071383918758
128 1     -11.036401405901
129 1     -10.975516939849
130 1     -11.001816429832
131 1     -11.168239728038
132 1     -11.064895734516
133 1     -11.009174396357
134 1     -10.916496542386
135 1     -11.046857757044
136 1     -11.145864145766
137 1     -10.882202555791
138 1     -11.032145669890
139 1     -11.074808972336
140 1     -10.886200017870
141 1     -11.011671492750
142 1     -11.023807489842
143 1     -10.904029556300
144 1     -11.033876255703
145 1     -10.978849745515
146 1     -10.601502590896
147 1     -11.051512568067
148 1     -10.899371677672
149 1     -11.078136956595
150 1     -10.981993017862
151 1     -11.008812892919
152 1     -10.936656600613
153 1     -11.087408191967
154 1     -11.174550408289
155 1     -10.923734459014
156 1     -10.946035206100
157 1     -11.043865375086
158 1     -11.166970984873
159 1     -10.649533660466
160 1     -10.907575418841
