ITEM: TIMESTEP
0
ITEM: NUMBER OF ATOMS
30
ITEM: BOX BOUNDS xy xz yz pp pp pp
-2.5723675259999998e+00 5.1447350519999997e+00 -2.5723675259999998e+00
0.0000000000000000e+00 4.4554716750000001e+00 0.0000000000000000e+00
0.0000000000000000e+00 1.3849995066000000e+01 0.0000000000000000e+00
ITEM: ATOMS id type c_pe_atom
1 2      -5.977170940489
2 2      -5.976974866271
3 2      -5.977166428972
4 2      -5.977145998894
5 2      -5.976955058664
6 2      -5.977163133386
7 2      -5.976950829894
8 2      -5.977132001657
9 2      -5.977030994499
10 2      -5.977151687544
11 2      -5.977062971209
12 2      -5.976984139349
13 1      -5.892523850177
14 1      -5.892578348617
15 1      -5.892564581079
16 1      -5.892659259635
17 1      -5.892625549419
18 1      -5.892591351421
19 1      -5.892682503447
20 1      -5.892619849532
21 1      -5.892676724338
22 1      -5.892707013641
23 1      -5.892681627350
24 1      -5.892647651717
25 1      -5.892744877765
26 1      -5.892756265423
27 1      -5.892698391956
28 1      -5.892577934361
29 1      -5.892590505109
30 1      -5.892642603551
