ITEM: TIMESTEP
0
ITEM: NUMBER OF ATOMS
30
ITEM: BOX BOUNDS xy xz yz pp pp pp
-2.5723675259999998e+00 5.1447350519999997e+00 -2.5723675259999998e+00
0.0000000000000000e+00 4.4554716750000001e+00 0.0000000000000000e+00
0.0000000000000000e+00 1.3849995066000000e+01 0.0000000000000000e+00
ITEM: ATOMS id type v_vir_xx v_vir_yy v_vir_zz v_vir_xy v_vir_xz v_vir_yz
1 2      -2.487403730593      -2.487486797912      -0.859292118158       0.000006969926       0.000001090770      -0.000002860972
2 2      -2.487557417577      -2.487514046964      -0.859483030077      -0.000011942562       0.000009607380       0.000014306011
3 2      -2.487411265771      -2.487406757030      -0.859334391860      -0.000000197103      -0.000005040119       0.000000220905
4 2      -2.487442959732      -2.487445769145      -0.859340350761      -0.000009062411       0.000001180328      -0.000021942405
5 2      -2.487531369884      -2.487492970140      -0.859534883142       0.000015660697       0.000021429558       0.000022796592
6 2      -2.487383997496      -2.487462426694      -0.859272977624       0.000025910719      -0.000004530892      -0.000017925618
7 2      -2.487537439785      -2.487505939928      -0.859554331566       0.000004162049       0.000022603520       0.000021869247
8 2      -2.487430697060      -2.487497753589      -0.859319518469       0.000022154658      -0.000024199448       0.000001842539
9 2      -2.487538105377      -2.487503459115      -0.859439453376       0.000005995586      -0.000006213052      -0.000011462528
10 2      -2.487453658547      -2.487438501477      -0.859336741350       0.000005736474      -0.000010345729      -0.000001071300
11 2      -2.487433794688      -2.487488545095      -0.859398055602       0.000000474056      -0.000005459286      -0.000021415197
12 2      -2.487572127224      -2.487476596933      -0.859522424257      -0.000015665967       0.000014420782       0.000015342796
13 1       2.252684557338       3.047392530933       1.516344874780      -0.688269926195       0.763825784134       0.440977182879
14 1       3.444756822560       1.855369216879       1.516349918638       0.000023473902      -0.000000774589      -0.882001160967
15 1       2.252663385810       3.047422039120       1.516345741208       0.688242272249      -0.763830958351       0.441003904925
16 1       2.252716117914       3.047402989885       1.516305433612      -0.688242213875       0.763823013047       0.440986380898
17 1       2.252642885633       3.047445973710       1.516335375011       0.688233547300      -0.763805749890       0.441000508973
18 1       3.444777700969       1.855326259824       1.516318988122       0.000062590220      -0.000019033338      -0.881971905281
19 1       2.252650450186       3.047441181508       1.516339706949      -0.688245704580       0.763815845661       0.441002585072
20 1       3.444742252246       1.855310427010       1.516322287807      -0.000064504052       0.000029614763      -0.881962589222
21 1       2.252722795124       3.047405164448       1.516332574362       0.688252114784      -0.763839687248       0.440975039482
22 1       2.252643589881       3.047427972446       1.516328262203      -0.688240110146       0.763819005359       0.440997612762
23 1       2.252703284355       3.047395329922       1.516320827955       0.688258489778      -0.763840150798       0.440978748454
24 1       3.444739915670       1.855317884573       1.516320048217      -0.000067577826       0.000032598640      -0.881968774991
25 1       2.252731626328       3.047419709152       1.516341494721      -0.688263839885       0.763834492307       0.440994446013
26 1       3.444794263841       1.855312930634       1.516346226461       0.000044945677      -0.000016123016      -0.881995641304
27 1       2.252648374676       3.047390197528       1.516335873467       0.688220493510      -0.763802276066       0.441005596624
28 1       2.252660324757       3.047428128105       1.516341129502      -0.688241795854       0.763811987683       0.441007642771
29 1       2.252740321038       3.047375960968       1.516336849415       0.688273291908      -0.763831625393       0.440959837344
30 1       3.444780755614       1.855355659664       1.516335769690      -0.000027535930       0.000005743046      -0.881993146431
