ITEM: TIMESTEP
0
ITEM: NUMBER OF ATOMS
30
ITEM: BOX BOUNDS xy xz yz pp pp pp
-2.5723675259999998e+00 5.1447350519999997e+00 -2.5723675259999998e+00
0.0000000000000000e+00 4.4554716750000001e+00 0.0000000000000000e+00
0.0000000000000000e+00 1.3849995066000000e+01 0.0000000000000000e+00
ITEM: ATOMS id type x y z fx fy fz
1 2       0.000000000000       0.000000000000       1.996330000000       0.000004710743       0.000010584405      -0.075034479582
2 2      -0.000000000000       2.970310000000       0.312010000000       0.000007400500       0.000066039400       0.074917738245
3 2       2.572370000000       1.485160000000       2.620330000000      -0.000026675635      -0.000024955164       0.075050629594
4 2      -0.000000000000       2.970310000000       4.304670000000       0.000001691085       0.000068908986      -0.074999400619
5 2       2.572370000000       1.485160000000       6.612990000000      -0.000038611410      -0.000064822268      -0.074974396293
6 2       0.000000000000       0.000000000000       4.928670000000      -0.000013086383      -0.000021915819       0.075052204999
7 2      -0.000000000000       2.970310000000       7.237010000000       0.000037116018       0.000067738755       0.074967694688
8 2       0.000000000000       0.000000000000       8.921330000000       0.000036625825       0.000007773443      -0.075049245110
9 2      -0.000000000000       2.970310000000      11.229660000000       0.000010346402       0.000075609928      -0.074949592713
10 2       2.572370000000       1.485160000000       9.545330000000      -0.000024578918      -0.000027750392       0.075038542262
11 2       0.000000000000       0.000000000000      11.853670000000      -0.000002542338      -0.000019765343       0.075036646620
12 2       2.572370000000       1.485160000000      13.537990000000      -0.000054831409      -0.000060057513      -0.075049613101
13 1      -0.779440000000       1.350040000000       3.462500000000       0.034408842316      -0.059697973458      -0.000027725572
14 1       1.558890000000       0.000000000000       3.462500000000      -0.068918014748       0.000002400932      -0.000006133947
15 1       1.792920000000       3.105440000000       3.462500000000       0.034501955984       0.059629688307      -0.000021920696
16 1       3.351810000000       0.135120000000       1.154160000000      -0.034415339293       0.059703006720       0.000094581340
17 1       3.351810000000       2.835190000000       1.154160000000      -0.034485333216      -0.059628675893       0.000093970798
18 1       1.013480000000       1.485160000000       1.154160000000       0.068911154372      -0.000079878963       0.000102599562
19 1       1.792930000000       2.835190000000       8.079160000000       0.034445559131      -0.059638634132       0.000089005076
20 1       4.131260000000       1.485160000000       8.079160000000      -0.068937593236      -0.000080598530       0.000109813402
21 1       1.792930000000       0.135120000000       8.079160000000       0.034385817695       0.059707329489       0.000106493489
22 1       0.779440000000       1.620280000000       5.770840000000      -0.034441458972       0.059646749080      -0.000083119497
23 1       0.779440000000       4.320350000000       5.770840000000      -0.034397617530      -0.059696226021      -0.000092944231
24 1      -1.558890000000       2.970310000000       5.770840000000       0.068925969430       0.000092400561      -0.000119555853
25 1      -0.779440000000       4.320350000000      12.695830000000       0.034393535864      -0.059669183079      -0.000014648682
26 1       1.558880000000       2.970310000000      12.695830000000      -0.068840218653       0.000044129455      -0.000028760983
27 1      -0.779450000000       1.620280000000      12.695830000000       0.034514392313       0.059654021545      -0.000029265233
28 1      -1.792920000000       3.105440000000      10.387500000000      -0.034500408626       0.059633867483      -0.000052742697
29 1       0.779440000000       1.350040000000      10.387500000000      -0.034375970435      -0.059711458938      -0.000069265412
30 1       3.585850000000       0.000000000000      10.387500000000       0.068887163127       0.000011647024      -0.000057109855
