ITEM: TIMESTEP
0
ITEM: NUMBER OF ATOMS
30
ITEM: BOX BOUNDS xy xz yz pp pp pp
-2.5065392229999999e+00 5.0130784459999997e+00 -2.5065392229999999e+00
0.0000000000000000e+00 4.3414536989999997e+00 0.0000000000000000e+00
0.0000000000000000e+00 1.3495566058000000e+01 0.0000000000000000e+00
ITEM: ATOMS id type c_pe_atom
1 2      -4.505347756901
2 2      -4.505349849110
3 2      -4.505355065328
4 2      -4.505360976793
5 2      -4.505340921252
6 2      -4.505353457562
7 2      -4.505334025630
8 2      -4.505339884779
9 2      -4.505360532350
10 2      -4.505352285220
11 2      -4.505358368200
12 2      -4.505343679491
13 1     -11.155148349722
14 1     -11.155143878670
15 1     -11.155142505194
16 1     -11.155142354354
17 1     -11.155140419907
18 1     -11.155142190327
19 1     -11.155148815658
20 1     -11.155155151353
21 1     -11.155149129658
22 1     -11.155151872303
23 1     -11.155147435259
24 1     -11.155147845518
25 1     -11.155147471920
26 1     -11.155149810956
27 1     -11.155154320975
28 1     -11.155148442518
29 1     -11.155151233250
30 1     -11.155150254750
