ITEM: TIMESTEP
0
ITEM: NUMBER OF ATOMS
160
ITEM: BOX BOUNDS pp pp pp
0.0000000000000000e+00 8.4916681310000008e+00
0.0000000000000000e+00 8.4916681310000008e+00
0.0000000000000000e+00 2.5475004391999999e+01
ITEM: ATOMS id type x y z fx fy fz
1 2       1.230730000000       5.271350000000      22.410280000000      -0.201669322172       0.135740611738      -0.056993763872
2 2       5.277250000000       0.858560000000      13.865680000000      -0.121512265923      -0.042163448097      -0.020681600662
3 2       7.263630000000       7.510360000000       7.491660000000      -0.157869731992       0.016964303974      -0.042007270166
4 2       7.392730000000       7.233820000000      15.991150000000      -0.011828126416       0.060558912183      -0.024127914709
5 2       5.300870000000       5.318100000000       0.995790000000       0.204927566628       0.275596729866       0.033499704827
6 2       3.074280000000       3.248840000000       7.306370000000       0.050517755915      -0.099427998906      -0.014976616393
7 2       0.968190000000       1.059910000000       1.096260000000      -0.108395633858       0.094441624500      -0.038569734251
8 2       5.244480000000       1.038230000000       5.316300000000       0.014332710305       0.203699959831       0.010139347439
9 2       3.228900000000       3.011500000000      15.881550000000      -0.033552453440      -0.013616111839       0.060505990586
10 2       5.456630000000       1.135760000000      22.220890000000      -0.085035770595       0.095506546641       0.051914822671
11 2       3.189100000000       7.357320000000      11.677290000000      -0.105319375475      -0.029363612812      -0.006632681346
12 2       7.529680000000       3.245780000000      20.091380000000       0.107529358729      -0.335368010666      -0.012097413584
13 2       1.034730000000       5.170940000000      13.674580000000      -0.025415676538       0.165009331167      -0.053015121317
14 2       7.428670000000       3.269770000000       3.249850000000      -0.207611737007      -0.270520984241      -0.054977789155
15 2       5.169850000000       5.401620000000       9.506510000000      -0.039747011285       0.156570480266       0.032669799141
16 2       7.465410000000       7.549450000000      24.439840000000      -0.057116538833      -0.205444940539       0.018019316512
17 2       3.237290000000       7.555750000000      20.202350000000      -0.047533422244      -0.049702244673       0.011362278778
18 2       0.929520000000       1.090200000000       9.662730000000       0.074455545464      -0.022173000080      -0.007410413548
19 2       3.270060000000       7.528100000000       3.151140000000       0.088487178399      -0.063179367600       0.004959459927
20 2       1.196010000000       1.043470000000      18.070570000000      -0.136726641877       0.052534427189       0.014999693298
21 2       3.993460000000       0.185920000000       8.502510000000       0.195094028555      -0.177911070646       0.003483543854
22 2       6.221270000000       6.205050000000      12.714660000000       0.063706125751      -0.031541849440      -0.041273281815
23 2       2.189010000000       2.154150000000      21.244160000000       0.065128225398       0.009803589768       0.075195734246
24 2       6.499250000000       6.393200000000      21.208860000000       0.041083123470      -0.093365264097       0.057841444741
25 2       1.995150000000       6.497900000000       8.405340000000      -0.040762057062       0.030135606641       0.030922910417
26 2       8.434360000000       2.096110000000       6.329030000000       0.275043930960       0.186798505823      -0.265003252443
27 2       2.022450000000       2.128880000000       4.281340000000      -0.147182345233       0.258509275104       0.078415314656
28 2       0.061810000000       2.044290000000      14.834720000000       0.030889378491       0.097002653463       0.075064922160
29 2       0.160270000000       6.298450000000      19.058500000000      -0.060203731270      -0.136089358007      -0.133745325055
30 2       6.360370000000       0.054760000000       2.132010000000       0.015695093547      -0.026747722516      -0.010271988603
31 2       6.180000000000       0.072860000000      10.675100000000       0.072444590562      -0.063671630600       0.057241731004
32 2       4.223840000000       2.228330000000      19.059530000000       0.128924988118      -0.102177000240      -0.140769680128
33 2       6.501950000000       8.467060000000      19.120680000000       0.097731757514       0.088230953860      -0.082906733218
34 2       6.446160000000       2.067400000000      16.958400000000       0.021306767219      -0.005441614973       0.175869164114
35 2       0.163870000000       2.089280000000      23.411560000000      -0.094360002891       0.126511230929       0.122955320386
36 2       2.070320000000       8.280490000000      14.951580000000      -0.062997741302       0.029164868964      -0.102693171450
37 2       4.064580000000       6.118540000000      14.866770000000       0.169078537672       0.148986354821       0.106737715859
38 2       6.320210000000       4.261750000000       6.405100000000      -0.033166079823      -0.029796007134      -0.176762308363
39 2       4.275350000000       6.467850000000      23.390910000000      -0.106765711969      -0.161160890999       0.212372164796
40 2       0.096830000000       4.243210000000      16.976510000000      -0.128524867414       0.065019915236       0.253238303681
41 2       2.117430000000       4.300580000000       2.121450000000      -0.009973371636      -0.025203528547      -0.003229165541
42 2       4.179070000000       4.372330000000      21.173880000000      -0.001057606886      -0.074448483013       0.028384896185
43 2       4.194980000000       8.300230000000      17.043940000000       0.097128748359       0.102381576129       0.144799661018
44 2       6.410450000000       4.296550000000      23.287510000000       0.044401652666      -0.042617717186       0.101785924070
45 2       8.430020000000       6.311920000000      10.583280000000       0.009762375735       0.039042381504       0.164135530692
46 2       8.479480000000       8.411480000000      12.768000000000       0.037808853531      -0.108426875505      -0.182796730110
47 2       0.015970000000       4.341790000000       0.049850000000      -0.074020465114       0.055016281575      -0.121421279446
48 2       6.296270000000       4.119130000000      14.828220000000       0.145608428131       0.024702134500      -0.053981073012
49 2       4.211880000000       4.245240000000       4.197650000000       0.086008107961      -0.043523996575       0.133859475766
50 2       2.152560000000       2.062070000000      12.670240000000      -0.193143948439       0.276553707946      -0.176591548683
51 2       2.119270000000       4.178430000000      10.634930000000      -0.203189704279      -0.215750677456       0.072628020302
52 2       0.039920000000       6.532400000000       2.226010000000       0.022221448403       0.032012724476      -0.101680010428
53 2       0.205450000000       8.451040000000      21.331710000000      -0.044924758173      -0.113651622338      -0.148801784772
54 2       4.178620000000       2.053650000000       2.015330000000      -0.031957721644       0.003284694897       0.052592341859
55 2       6.291850000000       2.074590000000      25.426060000000       0.107611341627       0.093564571912      -0.104489268184
56 2       8.479840000000       4.186760000000       8.489250000000      -0.103553505698       0.090127792421      -0.007289586590
57 2       6.161570000000       2.191740000000       8.590290000000      -0.031124361921       0.051586225203      -0.097376691414
58 2       4.079840000000       6.514880000000       6.313430000000       0.080370303238      -0.099277934140      -0.103155858209
59 2       6.425270000000       6.519500000000       4.305510000000      -0.077472743717      -0.097686038429       0.082516186826
60 2       2.211250000000       6.471000000000      25.445910000000       0.181183525092      -0.244209863216      -0.108446553022
61 2       5.226770000000       3.160120000000      11.716060000000      -0.084125586361      -0.056214549366       0.005590718328
62 2       3.222890000000       1.078870000000      24.388760000000       0.066452089091      -0.057797380886       0.011165588164
63 2       3.202160000000       5.247140000000      18.036280000000      -0.085666623086       0.058010721960       0.020647372716
64 2       1.002190000000       7.511550000000       5.305010000000      -0.006756040488       0.039166217586       0.007762504921
65 1       2.152180000000       2.164090000000       2.144760000000       0.038469087844       0.085858359783      -0.067183091075
66 1       6.244550000000       6.313970000000       6.330600000000       0.034563489276       0.040151389231       0.025869253802
67 1       4.337630000000       8.413210000000       6.521780000000      -0.017325696436       0.093400423322      -0.009371860676
68 1       4.371250000000       0.130550000000       2.145830000000       0.152127603508      -0.035793403651      -0.014811408985
69 1       8.361680000000       6.490780000000       4.168120000000       0.055758791329      -0.034848061808       0.078778422545
70 1       0.039690000000       2.245330000000       4.339810000000       0.163434061587      -0.000900484298       0.195087835146
71 1       6.266030000000       4.213270000000       8.462780000000       0.278969834121      -0.067616167184       0.087310062110
72 1       1.907410000000       4.523250000000       0.260380000000       0.030224354547       0.191562338424      -0.049038821248
73 1       8.477560000000       4.417030000000       2.112190000000       0.184584079105       0.068172982498       0.010401927550
74 1       8.200990000000       4.050500000000       6.630820000000       0.022023913010      -0.167563154379      -0.046624550476
75 1       4.355830000000       2.096060000000       0.069100000000      -0.080600283881       0.021791608356      -0.029392259616
76 1       4.070770000000       6.459860000000       8.355860000000       0.014173272935       0.140738681798      -0.066371077808
77 1       2.137130000000       0.078190000000       4.231330000000       0.015483990670      -0.072926757544      -0.031617502064
78 1       6.215660000000       8.428700000000       4.143640000000       0.004962950317       0.079383740334      -0.041048981045
79 1       2.138940000000       6.520190000000       6.455160000000      -0.055744463068      -0.000424827547      -0.037720124604
80 1       6.309180000000       2.143510000000       2.060510000000       0.050184959956       0.070748937102       0.065876703739
81 1       4.246460000000       4.175910000000       2.130470000000      -0.197915675870      -0.107192041243       0.009989821319
82 1       4.279200000000       4.388600000000       6.248740000000      -0.150380467477       0.028491035342       0.068782496211
83 1       8.295800000000       2.129870000000       8.487230000000      -0.075316744664       0.051419622852      -0.005587994719
84 1       0.039920000000       6.392480000000       0.081130000000       0.128566038437       0.043347755550      -0.031346084332
85 1       8.351620000000       0.066100000000       6.390570000000       0.022520861140      -0.032164373687       0.009065844017
86 1       8.351640000000       8.460170000000       2.099550000000      -0.168372737325       0.034796573681       0.023829351641
87 1       4.293570000000       6.314250000000       4.300470000000      -0.090863527602       0.093003697611      -0.004934507102
88 1       4.180990000000       2.195330000000       4.172440000000      -0.070913110350      -0.062770384347       0.023515439814
89 1       6.341300000000       2.187440000000       6.433460000000      -0.027276450196      -0.070286247411       0.001472321787
90 1       2.080330000000       6.430730000000       2.098020000000       0.012176117640      -0.074221928109       0.087044973789
91 1       2.322470000000       4.078010000000       3.981260000000      -0.029895888307      -0.220228984181       0.062138044869
92 1       6.244140000000       4.381500000000       4.335570000000       0.109701017418       0.091947709005      -0.077452652927
93 1       6.493230000000       0.162370000000       0.114890000000       0.003646004521      -0.058230200733       0.019878845465
94 1       2.081860000000       8.441700000000       8.678730000000       0.091480047595      -0.006666941271      -0.055278070282
95 1       6.410750000000       6.450000000000       2.186470000000      -0.073944977559      -0.063428835454      -0.019794857489
96 1       1.928410000000       2.229720000000       6.237840000000      -0.130610596997       0.013857998301      -0.024979391498
97 1       2.009460000000       2.197030000000      10.706560000000      -0.013973501264       0.107569186685       0.091941689438
98 1       6.293520000000       6.199500000000      14.788690000000      -0.151301485529       0.001617679376       0.039388540171
99 1       4.167640000000       8.307280000000      15.005530000000       0.029581535360      -0.142594272335       0.088390836791
100 1       4.283460000000       8.296960000000      10.474430000000      -0.106213865856       0.024728791994       0.024459215518
101 1       8.343640000000       6.375230000000      12.633370000000       0.026729172982      -0.153040820224       0.059067235532
102 1       0.196290000000       1.794420000000      12.968780000000       0.219535945189      -0.004134532469      -0.014525792989
103 1       6.660450000000       3.932630000000      16.708810000000       0.086479531921      -0.045469935070       0.056665489416
104 1       2.053730000000       4.369260000000       8.492210000000      -0.047513700718       0.061130462334       0.004832641254
105 1       0.150550000000       4.435720000000      10.349320000000       0.175902421576      -0.016554450088       0.059138149160
106 1       0.015360000000       4.071540000000      14.866320000000      -0.233886266019      -0.137789191527      -0.069308697008
107 1       4.214310000000       2.102510000000       8.304110000000       0.010316723082      -0.103757169447       0.061775065550
108 1       4.144810000000       6.383270000000      16.853800000000      -0.050427513510      -0.097905460407      -0.092183807860
109 1       2.061810000000       8.452480000000      12.790770000000       0.041486536513       0.010797920726       0.033359312666
110 1       6.421400000000       8.331220000000      12.687700000000       0.001833459881       0.092031304293       0.045481395264
111 1       2.139500000000       6.347320000000      14.672560000000       0.110467610274       0.008846351639       0.059131677697
112 1       6.172230000000       2.017780000000      10.533320000000       0.001749419764       0.040803899962       0.051609627306
113 1       4.163190000000       4.294440000000      10.622840000000       0.051437320954       0.004919748533      -0.030114211200
114 1       4.339330000000       4.203610000000      14.980020000000       0.012301206255       0.026371988447      -0.007881335349
115 1       0.034580000000       2.056380000000      16.876280000000       0.054620490461       0.074301249766       0.067248314931
116 1       8.456490000000       6.394670000000       8.520540000000       0.061890533514      -0.269878434178      -0.065888711984
117 1       0.050720000000       8.361930000000      14.866210000000       0.148358218337       0.127696459165       0.014069461431
118 1       8.303060000000       8.361710000000      10.722970000000      -0.014086471671       0.160061119832      -0.051149125649
119 1       4.322830000000       6.461240000000      12.893220000000      -0.101197880962      -0.007463215653       0.003781060243
120 1       4.214720000000       1.974820000000      12.790730000000       0.075175867006       0.018980299510       0.008402349736
121 1       6.462610000000       1.985130000000      14.890900000000       0.032133110627       0.138329554397      -0.058286306178
122 1       2.024880000000       6.286910000000      10.550080000000       0.062394204742       0.005007137650       0.030107692866
123 1       2.046960000000       4.050300000000      12.594410000000      -0.017878313616      -0.143520929577      -0.004410949601
124 1       6.257680000000       4.265890000000      12.866500000000       0.027286179674      -0.076736013775      -0.052526124657
125 1       6.202410000000       0.112020000000       8.631950000000      -0.127736941890      -0.025493033233       0.069950308411
126 1       2.265600000000       0.071310000000      16.881670000000      -0.033397611378      -0.029889707567      -0.022843325820
127 1       6.380410000000       6.401250000000      10.665390000000      -0.024831219323      -0.030088171275      -0.056448237999
128 1       2.130880000000       1.911330000000      14.780960000000      -0.028501926738      -0.055049032348      -0.051204535016
129 1       2.308300000000       2.011070000000      19.227250000000      -0.043024793377      -0.028579473479      -0.021527702371
130 1       6.422800000000       6.402760000000      23.255270000000      -0.047451328405       0.076490231230       0.100472559535
131 1       4.382690000000       0.042000000000      23.303340000000      -0.003350837376       0.066916339565       0.028741981373
132 1       4.432920000000       0.064060000000      19.035620000000      -0.095332397656      -0.019197759451      -0.024578672834
133 1       0.119210000000       6.437190000000      21.268010000000       0.080065706233       0.137117204350      -0.052973420234
134 1       0.119390000000       2.105350000000      21.290030000000      -0.045305496809       0.024426393484       0.004465128153
135 1       6.482710000000       4.211540000000      25.377720000000      -0.087255807130      -0.087533931454       0.064350608633
136 1       2.135670000000       4.096150000000      16.967040000000       0.106873240230      -0.021668022010       0.036355055877
137 1       0.036340000000       4.318480000000      18.960490000000      -0.006530961858       0.158607759108      -0.121965192805
138 1       8.453340000000       4.198170000000      23.461960000000       0.140590624891      -0.006074464414      -0.017007909836
139 1       4.404410000000       1.974730000000      17.062640000000      -0.105705633143       0.040785883516      -0.002701122669
140 1       4.203570000000       6.342660000000      25.369790000000      -0.218570707009      -0.002412755497      -0.114734944295
141 1       2.116200000000       0.144410000000      21.203800000000       0.007536645434       0.083786499216       0.039160016371
142 1       6.567600000000       0.023950000000      21.155030000000       0.103842187035      -0.135434124114      -0.137858903576
143 1       2.298290000000       6.366410000000      23.488000000000       0.049104086372      -0.013507309919      -0.036329073165
144 1       6.384030000000       2.026260000000      19.018730000000      -0.093428060874       0.198135456307       0.099300798170
145 1       4.233570000000       4.169310000000      19.223780000000       0.027916002615       0.045960655899      -0.084805074820
146 1       4.550360000000       4.540120000000      23.058190000000      -0.004949546737       0.137026712203       0.061516886575
147 1       8.429330000000       2.275140000000      25.425130000000       0.094079870324      -0.108975455322      -0.005999031511
148 1       8.489460000000       6.208280000000      17.079770000000       0.021806599940      -0.026545026354       0.118439728005
149 1       8.393210000000       0.169070000000      23.249780000000       0.010629144952      -0.037681261687      -0.015641525940
150 1       0.059520000000       8.457340000000      19.182670000000       0.022150206462      -0.122144103414      -0.004927747383
151 1       4.409010000000       6.441170000000      21.244410000000      -0.013706395780       0.007444071602      -0.053418628741
152 1       4.302450000000       2.229800000000      21.124460000000       0.056685157450       0.078811921451       0.054515856147
153 1       6.493560000000       2.277260000000      23.402930000000       0.002230778153       0.002186647096      -0.043745296668
154 1       2.180230000000       6.401330000000      19.140240000000       0.010936896032       0.015786043287      -0.028987080265
155 1       2.256570000000       4.136320000000      21.346190000000       0.099135547415      -0.162083968457      -0.017677898334
156 1       6.478570000000       4.361080000000      21.244090000000      -0.290577055794       0.119061543895      -0.025578595598
157 1       6.330830000000       0.004000000000      17.062000000000      -0.055598781957      -0.140757514567      -0.068147169903
158 1       2.102440000000       0.017590000000       0.012780000000      -0.034932630280       0.074885070262       0.031288692619
159 1       6.719640000000       6.584500000000      19.341420000000       0.126690033894       0.005342820993       0.000776168155
160 1       2.078550000000       2.062570000000      23.253100000000       0.028154207421      -0.021979046111      -0.028396793044
