ITEM: TIMESTEP
0
ITEM: NUMBER OF ATOMS
160
ITEM: BOX BOUNDS pp pp pp
0.0000000000000000e+00 8.4916681310000008e+00
0.0000000000000000e+00 8.4916681310000008e+00
0.0000000000000000e+00 2.5475004391999999e+01
ITEM: ATOMS id type c_pe_atom
1 2      -4.834369726068
2 2      -4.659922344424
3 2      -4.655966693633
4 2      -4.804473637905
5 2      -4.792096165732
6 2      -4.857849186603
7 2      -4.709755926857
8 2      -4.648724295079
9 2      -4.681779552652
10 2      -4.660260138963
11 2      -4.635863705523
12 2      -4.790757596533
13 2      -4.841097035149
14 2      -4.781543816096
15 2      -4.652366453183
16 2      -4.668094112830
17 2      -4.722400010021
18 2      -4.851205194897
19 2      -4.709405689517
20 2      -4.667691466595
21 2      -5.155907793861
22 2      -5.117552621437
23 2      -5.300870962256
24 2      -4.967787292606
25 2      -5.108116029251
26 2      -5.397812200288
27 2      -5.372130863901
28 2      -4.928867773709
29 2      -5.358103739587
30 2      -5.231089264643
31 2      -5.104086643432
32 2      -5.090595361107
33 2      -5.075180191074
34 2      -5.035340796817
35 2      -5.064860621197
36 2      -4.987859605023
37 2      -5.226658574428
38 2      -5.054106307753
39 2      -5.363351351615
40 2      -5.380712578986
41 2      -5.099371773400
42 2      -5.182492871714
43 2      -5.105736941791
44 2      -5.070136818939
45 2      -5.041219492999
46 2      -5.019518400464
47 2      -5.091272588839
48 2      -5.238678015890
49 2      -5.088379350246
50 2      -5.382840546285
51 2      -5.395465179229
52 2      -5.070831670755
53 2      -4.975848522908
54 2      -5.069493325722
55 2      -5.069975878299
56 2      -5.042747760184
57 2      -5.106931793216
58 2      -5.099832507933
59 2      -5.063284407676
60 2      -5.365695773803
61 2      -5.034100088513
62 2      -4.990157565785
63 2      -4.989486653545
64 2      -5.008727172339
65 1     -10.853305705705
66 1     -10.918159118913
67 1     -10.838088727371
68 1     -10.866857632678
69 1     -10.835871659242
70 1     -10.699357835717
71 1     -10.841163218937
72 1     -10.571693939328
73 1     -10.796388549667
74 1     -10.564285837821
75 1     -10.806071946693
76 1     -10.782826218326
77 1     -10.993554766354
78 1     -10.813574117642
79 1     -10.812276649834
80 1     -10.726974314864
81 1     -10.789446175189
82 1     -10.888576235606
83 1     -10.774643901979
84 1     -10.813623867102
85 1     -11.022595798290
86 1     -10.869198453127
87 1     -10.892437994218
88 1     -10.800968568205
89 1     -10.801819822488
90 1     -10.849758747252
91 1     -10.571242756033
92 1     -10.899606572590
93 1     -10.813787288450
94 1     -10.872762604422
95 1     -10.722998828113
96 1     -10.708358096343
97 1     -10.702270436411
98 1     -10.698613237778
99 1     -10.805151207013
100 1     -10.819672342549
101 1     -10.881292603475
102 1     -10.560593862536
103 1     -10.523747551674
104 1     -10.795966266236
105 1     -10.567461688230
106 1     -10.804116603423
107 1     -10.854003172667
108 1     -10.772560686650
109 1     -10.824841386340
110 1     -10.935628193753
111 1     -10.877997555257
112 1     -10.808151331982
113 1     -11.006114979054
114 1     -10.877838219775
115 1     -10.839235285858
116 1     -10.825703450187
117 1     -10.838491220081
118 1     -10.886883821569
119 1     -10.839804381274
120 1     -11.005745318914
121 1     -10.818165349358
122 1     -10.809254332693
123 1     -10.717150918166
124 1     -10.811053231087
125 1     -10.790905603695
126 1     -10.904557414628
127 1     -10.903163934538
128 1     -10.878617265608
129 1     -10.817353684550
130 1     -10.831922572886
131 1     -10.983809068394
132 1     -10.905252233961
133 1     -10.820232156412
134 1     -10.729711768190
135 1     -10.887614496889
136 1     -10.976984893455
137 1     -10.713649146668
138 1     -10.880076017640
139 1     -10.916753202757
140 1     -10.705236534082
141 1     -10.858435628086
142 1     -10.870979390150
143 1     -10.731958649414
144 1     -10.859288927457
145 1     -10.816857405947
146 1     -10.522407095482
147 1     -10.891536048527
148 1     -10.738431168883
149 1     -10.937800539700
150 1     -10.811616867665
151 1     -10.831565301001
152 1     -10.763661817860
153 1     -10.934399549575
154 1     -10.998757205632
155 1     -10.777954251852
156 1     -10.776025156113
157 1     -10.878638253141
158 1     -10.991381385754
159 1     -10.569266989975
160 1     -10.746702516935
