ITEM: TIMESTEP
0
ITEM: NUMBER OF ATOMS
40
ITEM: BOX BOUNDS pp pp pp
0.0000000000000000e+00 8.7317141449999998e+00
0.0000000000000000e+00 5.0847512500000001e+00
0.0000000000000000e+00 9.3431907049999996e+00
ITEM: ATOMS id type v_vir_xx v_vir_yy v_vir_zz v_vir_xy v_vir_xz v_vir_yz
1 2      -1.955491859859      -2.444176626507      -2.461414466017       0.687239494742       1.093379297522      -1.199205430110
2 2      -1.955532686535      -2.444225876419      -2.461396975313      -0.687243870247      -1.093359610483      -1.199208584690
3 2      -3.730868228509      -4.331893458700      -3.435172834687      -0.566969872131      -0.411779716196       0.644940174341
4 2      -3.730946756848      -4.331837338206      -3.435379175186       0.566946202240       0.411825912836       0.644946386339
5 2      -2.684345092325      -2.966957263970      -2.421369145355      -0.298286511994       0.734430378162      -0.093766907873
6 2      -2.767517134656      -3.399527889103      -4.109514348773       0.362794449033      -0.626142786729      -1.301303327389
7 2      -2.767545705460      -3.399539789317      -4.109565519549      -0.362755667723       0.626118176574      -1.301319796133
8 2      -2.684278398138      -2.966952595748      -2.421312694928       0.298211611865      -0.734435695647      -0.093835708536
9 2      -3.732415352422      -4.330834598849      -3.433447802339       0.565502731167      -0.411855498824      -0.645216177684
10 2      -3.732467579389      -4.330758465227      -3.433420222753      -0.565526934534       0.411865736175      -0.645179198470
11 2      -1.958669554110      -2.447345327903      -2.463615409893      -0.688766114124       1.094529597108       1.195324753395
12 2      -1.958685303094      -2.447375579605      -2.463665656290       0.688786824105      -1.094587849940       1.195292543343
13 2      -2.678134095752      -2.968584043192      -2.420986139234      -0.299258240044      -0.733555234921       0.092424091863
14 2      -2.762897474325      -3.400496511665      -4.111279470773      -0.362666430528      -0.626695665286       1.300025499398
15 2      -2.762845657669      -3.400531929635      -4.111255930059       0.362720633837       0.626734528269       1.300073640616
16 2      -2.678125420868      -2.968576594224      -2.420891337163       0.299207697641       0.733559684785       0.092422954086
17 1       0.740241298163       1.161401866089       0.786593196744       0.309343685405       0.746184891696      -0.760572435419
18 1       0.215547555993       0.873785471427       1.112657328158      -0.359447367021      -0.891207126385      -0.433174778827
19 1       1.373020634561       1.137391298575       0.782991216175      -0.336632301014      -0.460756597478      -0.714702781000
20 1       2.425748859031       2.677562185206       2.736344636366      -0.338013903746      -0.718091262947      -0.910045574777
21 1       0.740243998091       1.161352705966       0.786575753924      -0.309393817898      -0.746161372296      -0.760526591957
22 1       2.248519131527       1.957960280336       2.072245239665      -0.053542908616      -0.138190543438      -0.374374208132
23 1       1.373001450761       1.137358440509       0.782984542256       0.336625137225       0.460729675695      -0.714698767299
24 1       2.425729861237       2.677556910709       2.736337811400       0.338033696528       0.718067397738      -0.910063191435
25 1       2.249039515525       1.957602586308       2.072187876521      -0.053605738306       0.138109382645       0.374870721853
26 1       0.740636948984       1.156151241827       0.785255805750      -0.306881978068       0.747607561044       0.761320684549
27 1       2.422344431440       2.676670002057       2.735825202796      -0.337037607885       0.720311562680       0.909600147331
28 1       1.370486929721       1.136797138110       0.781965558181      -0.335975278563       0.460423149213       0.713576359999
29 1       0.215612882200       0.876117318052       1.113327922117      -0.361927774075       0.889904849765       0.432553522633
30 1       0.740644934086       1.156159271041       0.785284857087       0.306866669949      -0.747632535695       0.761332300960
31 1       1.464291550188       2.534182026574       2.155632793013       0.014143859548       0.208552138479       0.084355086075
32 1       1.462943542511       2.535432048968       2.156004186834       0.012097017945      -0.208255105709      -0.083626666126
33 1       0.215628913324       0.876120038052       1.113338392623       0.361895659479      -0.889929560621       0.432581330392
34 1       2.248522999880       1.957988276703       2.072462191440       0.053562997560       0.138204511581      -0.374409616093
35 1       1.464374908943       2.534245267184       2.155646106348      -0.014106519433      -0.208507462164       0.084365224602
36 1       1.462903319306       2.535418321751       2.156056062777      -0.012141493415       0.208261868966      -0.083608975975
37 1       2.249070933922       1.957618693480       2.072185136812       0.053611846614      -0.138128899243       0.374854616849
38 1       0.215515056171       0.873776986906       1.112634930539       0.359462015221       0.891174069072      -0.433159485451
39 1       2.422395142177       2.676608151130       2.735830222724       0.337049001988      -0.720320723822       0.909616543851
40 1       1.370501061279       1.136882112403       0.782013671673       0.335964465647      -0.460439736538       0.713606764021
