ITEM: TIMESTEP
0
ITEM: NUMBER OF ATOMS
80
ITEM: BOX BOUNDS pp pp pp
0.0000000000000000e+00 9.4674102219999998e+00
0.0000000000000000e+00 9.4674102219999998e+00
0.0000000000000000e+00 9.4674102219999998e+00
ITEM: ATOMS id type v_vir_xx v_vir_yy v_vir_zz v_vir_xy v_vir_xz v_vir_yz
1 2      -5.056174151679      -5.056179637362      -5.056200777410      -0.905931765695       0.905917344942       0.905929514503
2 2      -4.251964949181      -4.036021929862      -4.281647920914      -0.000000161300       0.591221774298      -0.000025720072
3 2      -4.281681674830      -4.252007165577      -4.036022956630       0.591237303268       0.000011007027      -0.000006137198
4 2      -4.281639176270      -4.251962647923      -4.036008444101      -0.591218724050      -0.000011811421      -0.000006435854
5 2      -4.036022956630      -4.281681674830      -4.252007165577       0.000011007027      -0.000006137198       0.591237303268
6 2      -4.035968308866      -4.281672996429      -4.251997055237       0.000026517121       0.000000133083      -0.591231948289
7 2      -4.251962647923      -4.036008444100      -4.281639176270      -0.000006435854      -0.591218724050      -0.000011811421
8 2      -5.056200777410      -5.056174151679      -5.056179637362       0.905917344942       0.905929514503      -0.905931765695
9 2      -5.056171114123      -5.056171114123      -5.056171114123      -0.905927915378      -0.905927915378      -0.905927915378
10 2      -5.056179637362      -5.056200777410      -5.056174151679       0.905929514503      -0.905931765695       0.905917344942
11 2      -4.251997055237      -4.035968308866      -4.281672996429       0.000000133083      -0.591231948289       0.000026517121
12 2      -4.036008444100      -4.281639176270      -4.251962647923      -0.000011811421      -0.000006435854      -0.591218724050
13 2      -4.036021929862      -4.281647920914      -4.251964949181      -0.000025720072      -0.000000161300       0.591221774298
14 2      -4.281672996429      -4.251997055237      -4.035968308866      -0.591231948289       0.000026517121       0.000000133083
15 2      -4.281647920914      -4.251964949181      -4.036021929862       0.591221774298      -0.000025720072      -0.000000161300
16 2      -4.252007165577      -4.036022956630      -4.281681674830      -0.000006137198       0.591237303268       0.000011007027
17 2      -5.056209303970      -5.056203806912      -5.056182681237      -0.905918946051       0.905933361748       0.905921193064
18 2      -4.252001636349      -4.035991306401      -4.281673519512      -0.000008430369       0.591233352364       0.000011855250
19 2      -4.281656416087      -4.251973863669      -4.035985543273       0.591220270459       0.000002858387       0.000014730434
20 2      -4.281682240088      -4.252003942422      -4.036004785688      -0.591236399168      -0.000003653595       0.000014435595
21 2      -4.035985543273      -4.281656416087      -4.251973863669       0.000002858387       0.000014730434       0.591220270459
22 2      -4.036040181176      -4.281665076455      -4.251983971122      -0.000011049031      -0.000008133053      -0.591225615707
23 2      -4.252003942422      -4.036004785688      -4.281682240088       0.000014435595      -0.591236399168      -0.000003653595
24 2      -5.056182681237      -5.056209303970      -5.056203806912       0.905933361748       0.905921193064      -0.905918946051
25 2      -5.056212348367      -5.056212348367      -5.056212348367      -0.905922787179      -0.905922787179      -0.905922787179
26 2      -5.056203806912      -5.056182681237      -5.056209303970       0.905921193064      -0.905918946051       0.905933361748
27 2      -4.251983971122      -4.036040181176      -4.281665076455      -0.000008133053      -0.591225615707      -0.000011049031
28 2      -4.036004785688      -4.281682240088      -4.252003942422      -0.000003653595       0.000014435595      -0.591236399168
29 2      -4.035991306401      -4.281673519512      -4.252001636349       0.000011855250      -0.000008430369       0.591233352364
30 2      -4.281665076455      -4.251983971122      -4.036040181176      -0.591225615707      -0.000011049031      -0.000008133053
31 2      -4.281673519512      -4.252001636349      -4.035991306401       0.591233352364       0.000011855250      -0.000008430369
32 2      -4.251973863669      -4.035985543273      -4.281656416087       0.000014730434       0.591220270459       0.000002858387
33 1       3.458795436139       3.379974326241       2.941133675638      -0.344702007571       0.685413892492       0.287427136426
34 1       3.458779471274       3.379971481510       2.941155553579       0.344715074318      -0.685435961312       0.287427280261
35 1       3.379965146925       2.941132783518       3.458804745393      -0.287414524690      -0.344702087690      -0.685426771616
36 1       3.379942810412       2.941144517981       3.458768425307       0.287415292464      -0.344727569346       0.685451777941
37 1       3.379948240871       2.941158924428       3.458795948671      -0.287421057572       0.344708342063       0.685443199586
38 1       3.379929708042       2.941115457142       3.458773309986       0.287400476176       0.344731684414      -0.685433806312
39 1       3.458804745393       3.379965146925       2.941132783518      -0.344702087690      -0.685426771616      -0.287414524690
40 1       3.458795948671       3.379948240871       2.941158924428       0.344708342063       0.685443199586      -0.287421057572
41 1       2.941115457142       3.458773309986       3.379929708042      -0.685433806312       0.287400476176       0.344731684414
42 1       2.941108229566       3.458773984403       3.379948137438       0.685423066988      -0.287409417759       0.344731047563
43 1       2.941132783518       3.458804745393       3.379965146925      -0.685426771616      -0.287414524690      -0.344702087690
44 1       2.941133675638       3.458795436139       3.379974326241       0.685413892492       0.287427136426      -0.344702007571
45 1       2.941141545503       3.458776256439       3.379947169045      -0.685435405317      -0.287430632538      -0.344720111308
46 1       2.941158924428       3.458795948671       3.379948240871       0.685443199586      -0.287421057572       0.344708342063
47 1       2.941155553579       3.458779471274       3.379971481510      -0.685435961312       0.287427280261       0.344715074318
48 1       2.941144517981       3.458768425307       3.379942810412       0.685451777941       0.287415292464      -0.344727569346
49 1       3.458773984403       3.379948137438       2.941108229566       0.344731047563       0.685423066988      -0.287409417759
50 1       3.458776256439       3.379947169045       2.941141545503      -0.344720111308      -0.685435405317      -0.287430632538
51 1       3.379948137438       2.941108229566       3.458773984403      -0.287409417759       0.344731047563       0.685423066988
52 1       3.379971481510       2.941155553579       3.458779471274       0.287427280261       0.344715074318      -0.685435961312
53 1       3.379974326241       2.941133675638       3.458795436139       0.287427136426      -0.344702007571       0.685413892492
54 1       3.379947169045       2.941141545503       3.458776256439      -0.287430632538      -0.344720111308      -0.685435405317
55 1       3.458768425307       3.379942810412       2.941144517981      -0.344727569346       0.685451777941       0.287415292464
56 1       3.458773309986       3.379929708042       2.941115457142       0.344731684414      -0.685433806312       0.287400476176
57 1       3.458796029872       3.379933613863       2.941143108300      -0.344724092444       0.685449940084       0.287410357815
58 1       3.458797366270       3.379944590847       2.941118697180       0.344718437747      -0.685427571585       0.287405426539
59 1       3.379959947204       2.941138188697       3.458763295717      -0.287415053944      -0.344739225071      -0.685447258649
60 1       3.379976353771       2.941128175915       3.458792156998       0.287415892956      -0.344714361759       0.685416323206
61 1       3.379956858639       2.941118025713       3.458771794587      -0.287416521314       0.344726758556       0.685419257324
62 1       3.379981314050       2.941159772803       3.458801889930       0.287435494283       0.344702819674      -0.685434581954
63 1       3.458763295717       3.379959947204       2.941138188697      -0.344739225071      -0.685447258649      -0.287415053944
64 1       3.458771794587       3.379956858639       2.941118025713       0.344726758556       0.685419257324      -0.287416521314
65 1       2.941159772803       3.458801889930       3.379981314050      -0.685434581954       0.287435494283       0.344702819674
66 1       2.941164293592       3.458810323370       3.379973867554       0.685446396316      -0.287421684562       0.344701860147
67 1       2.941138188697       3.458763295717       3.379959947204      -0.685447258649      -0.287415053944      -0.344739225071
68 1       2.941143108300       3.458796029872       3.379933613863       0.685449940084       0.287410357815      -0.344724092444
69 1       2.941136966496       3.458807752642       3.379954840356      -0.685422496230      -0.287408472070      -0.344706580648
70 1       2.941118025713       3.458771794587       3.379956858639       0.685419257324      -0.287416521314       0.344726758556
71 1       2.941118697180       3.458797366270       3.379944590847      -0.685427571585       0.287405426539       0.344718437747
72 1       2.941128175915       3.458792156998       3.379976353771       0.685416323206       0.287415892956      -0.344714361759
73 1       3.458810323370       3.379973867554       2.941164293592       0.344701860147       0.685446396316      -0.287421684562
74 1       3.458807752642       3.379954840356       2.941136966496      -0.344706580648      -0.685422496230      -0.287408472070
75 1       3.379973867554       2.941164293592       3.458810323370      -0.287421684562       0.344701860147       0.685446396316
76 1       3.379944590847       2.941118697180       3.458797366270       0.287405426539       0.344718437747      -0.685427571585
77 1       3.379933613863       2.941143108300       3.458796029872       0.287410357815      -0.344724092444       0.685449940084
78 1       3.379954840356       2.941136966496       3.458807752642      -0.287408472070      -0.344706580648      -0.685422496230
79 1       3.458792156998       3.379976353771       2.941128175915      -0.344714361759       0.685416323206       0.287415892956
80 1       3.458801889930       3.379981314050       2.941159772803       0.344702819674      -0.685434581954       0.287435494283
