20
Config_type=bulk_beta_phase Weight=1.0 Lattice="12.228142857 0.000000000 -2.975910894 0.000000000 3.116578143 0.000000000 0.000000000 0.000000000 5.938178495" Energy=-170.59083340 Virial="-6.07309 -0.00000 -0.14663 -0.00000 -6.65842 0.00000 -0.14663 0.00000 -6.40810" pbc="T T T" Properties=species:S:1:pos:R:3:forces:R:3
Ga	      1.93577      1.55829      1.39182        -0.019485     -0.000008      0.028117
Ga	      4.17830      0.00000      3.05840         0.019504      0.000009     -0.028084
Ga	      1.09409      0.00000      4.45280        -0.019989      0.000014     -0.006650
Ga	      5.01998      1.55829     -0.00258         0.020093     -0.000016      0.006685
Ga	      8.04984      0.00000     -0.09614        -0.019424      0.000007      0.028257
Ga	     10.29237      1.55829      1.57045         0.019496     -0.000009     -0.028246
Ga	      7.20816      1.55829      2.96485        -0.019978     -0.000016     -0.006720
Ga	     11.13405      0.00000     -1.49054         0.020116      0.000014      0.006779
O	      6.05917      0.00000      0.04994        -0.012252      0.000017      0.014176
O	      0.05491      1.55829      4.40028         0.012055     -0.000016     -0.014115
O	      2.12908      0.00000      2.84169         0.008407      0.000005      0.004055
O	      3.98499      1.55829      1.60853        -0.008536     -0.000003     -0.004350
O	      4.13959      1.55829      4.28106         0.020119     -0.000011     -0.002263
O	      1.97448      0.00000      0.16916        -0.020082      0.000011      0.002305
O	     12.17324      1.55829     -1.43801        -0.012235     -0.000017      0.014119
O	      6.16898      0.00000      2.91233         0.012079      0.000017     -0.014145
O	      8.24315      1.55829      1.35374         0.008614     -0.000005      0.004358
O	     10.09906      0.00000      0.12057        -0.008558      0.000006     -0.004315
O	     10.25366      0.00000      2.79310         0.020138      0.000010     -0.002185
O	      8.08855      1.55829     -1.31879        -0.020080     -0.000009      0.002221
