ITEM: TIMESTEP
0
ITEM: NUMBER OF ATOMS
80
ITEM: BOX BOUNDS pp pp pp
0.0000000000000000e+00 9.2227256640000004e+00
0.0000000000000000e+00 9.2227256640000004e+00
0.0000000000000000e+00 9.2227256640000004e+00
ITEM: ATOMS id type c_pe_atom
1 2      -4.950337072042
2 2      -4.870969608888
3 2      -4.870975645773
4 2      -4.870969786270
5 2      -4.870975645773
6 2      -4.870965788864
7 2      -4.870969786270
8 2      -4.950337072042
9 2      -4.950330363723
10 2      -4.950337072042
11 2      -4.870965788864
12 2      -4.870969786270
13 2      -4.870969608888
14 2      -4.870965788864
15 2      -4.870969608888
16 2      -4.870975645773
17 2      -4.950343781486
18 2      -4.870975929107
19 2      -4.870971223385
20 2      -4.870975751838
21 2      -4.870971223385
22 2      -4.870981080449
23 2      -4.870975751838
24 2      -4.950343781486
25 2      -4.950350490314
26 2      -4.950343781486
27 2      -4.870981080449
28 2      -4.870975751838
29 2      -4.870975929107
30 2      -4.870981080449
31 2      -4.870975929107
32 2      -4.870971223385
33 1     -10.864377838517
34 1     -10.864373559428
35 1     -10.864383020421
36 1     -10.864374768445
37 1     -10.864387532926
38 1     -10.864380454694
39 1     -10.864383020421
40 1     -10.864387532926
41 1     -10.864380454694
42 1     -10.864382246734
43 1     -10.864383020421
44 1     -10.864377838517
45 1     -10.864385351764
46 1     -10.864387532926
47 1     -10.864373559428
48 1     -10.864374768445
49 1     -10.864382246734
50 1     -10.864385351764
51 1     -10.864382246734
52 1     -10.864373559428
53 1     -10.864377838517
54 1     -10.864385351764
55 1     -10.864374768445
56 1     -10.864380454694
57 1     -10.864383280348
58 1     -10.864371149768
59 1     -10.864380220818
60 1     -10.864380854828
61 1     -10.864376881593
62 1     -10.864391577613
63 1     -10.864380220818
64 1     -10.864376881593
65 1     -10.864391577613
66 1     -10.864370080668
67 1     -10.864380220818
68 1     -10.864383280348
69 1     -10.864368149039
70 1     -10.864376881593
71 1     -10.864371149768
72 1     -10.864380854828
73 1     -10.864370080668
74 1     -10.864368149039
75 1     -10.864370080668
76 1     -10.864371149768
77 1     -10.864383280348
78 1     -10.864368149039
79 1     -10.864380854828
80 1     -10.864391577613
