ITEM: TIMESTEP
0
ITEM: NUMBER OF ATOMS
80
ITEM: BOX BOUNDS pp pp pp
0.0000000000000000e+00 9.2227256640000004e+00
0.0000000000000000e+00 9.2227256640000004e+00
0.0000000000000000e+00 9.2227256640000004e+00
ITEM: ATOMS id type x y z fx fy fz
1 2       6.917040000000       2.305680000000       2.305680000000       0.000190264527       0.000019731091       0.000117626686
2 2       6.917040000000       4.285650000000       4.611360000000       0.000074955842      -0.173907783836       0.000054742421
3 2       0.000000000000       6.917040000000       0.325710000000       0.000005198386       0.000041994655       0.173921179491
4 2       0.000000000000       2.305680000000       4.285650000000      -0.000039790433       0.000035611693      -0.173886188588
5 2       0.325710000000       0.000000000000       6.917040000000       0.173921179491       0.000005198386       0.000041994655
6 2       0.325710000000       4.611360000000       2.305680000000       0.173943458126       0.000009753278       0.000002649833
7 2       2.305680000000       4.285650000000       0.000000000000       0.000035611693      -0.173886188588      -0.000039790433
8 2       2.305680000000       6.917040000000       2.305680000000       0.000117626686       0.000190264527       0.000019731091
9 2       2.305680000000       2.305680000000       2.305680000000       0.000050074735       0.000050074735       0.000050074735
10 2       2.305680000000       2.305680000000       6.917040000000       0.000019731091       0.000117626686       0.000190264527
11 2       2.305680000000       0.325710000000       4.611360000000       0.000002649833       0.173943458126       0.000009753278
12 2       4.285650000000       0.000000000000       2.305680000000      -0.173886188588      -0.000039790433       0.000035611693
13 2       4.285650000000       4.611360000000       6.917040000000      -0.173907783836       0.000054742421       0.000074955842
14 2       4.611360000000       2.305680000000       0.325710000000       0.000009753278       0.000002649833       0.173943458126
15 2       4.611360000000       6.917040000000       4.285650000000       0.000054742421       0.000074955842      -0.173907783836
16 2       6.917040000000       0.325710000000       0.000000000000       0.000041994655       0.173921179491       0.000005198386
17 2       2.305680000000       6.917040000000       6.917040000000       0.000083618380       0.000117031937       0.000150575132
18 2       2.305680000000       8.897020000000       0.000000000000       0.000016594075      -0.174010751042      -0.000033418813
19 2       4.611360000000       2.305680000000       4.937070000000       0.000016124998       0.000049557757       0.173930060353
20 2       4.611360000000       6.917040000000       8.897020000000      -0.000028863228       0.000028051174      -0.174032347395
21 2       4.937070000000       4.611360000000       2.305680000000       0.173930060353       0.000016124998       0.000049557757
22 2       4.937070000000       0.000000000000       6.917040000000       0.173907780876      -0.000078406375       0.000061014747
23 2       6.917040000000       8.897020000000       4.611360000000       0.000028051174      -0.174032347395      -0.000028863228
24 2       6.917040000000       2.305680000000       6.917040000000       0.000150575132       0.000083618380       0.000117031937
25 2       6.917040000000       6.917040000000       6.917040000000       0.000092369027       0.000092369027       0.000092369027
26 2       6.917040000000       6.917040000000       2.305680000000       0.000117031937       0.000150575132       0.000083618380
27 2       6.917040000000       4.937070000000       0.000000000000       0.000061014747       0.173907780876      -0.000078406375
28 2       8.897020000000       4.611360000000       6.917040000000      -0.174032347395      -0.000028863228       0.000028051174
29 2       8.897020000000       0.000000000000       2.305680000000      -0.174010751042      -0.000033418813       0.000016594075
30 2       0.000000000000       6.917040000000       4.937070000000      -0.000078406375       0.000061014747       0.173907780876
31 2       0.000000000000       2.305680000000       8.897020000000      -0.000033418813       0.000016594075      -0.174010751042
32 2       2.305680000000       4.937070000000       4.611360000000       0.000049557757       0.173930060353       0.000016124998
33 1       8.145550000000       5.615600000000       1.452630000000      -0.175446422608       0.021514023990      -0.074013285902
34 1       8.145550000000       3.607130000000       3.158740000000      -0.175503615718      -0.021612486825       0.073930881174
35 1       8.218490000000       1.452630000000       1.077180000000      -0.021512750603      -0.074011235621       0.175479628094
36 1       8.218490000000       3.158740000000       5.688540000000      -0.021524219941       0.073934970006       0.175455919910
37 1       1.004240000000       3.158740000000       1.077180000000       0.021452217527       0.073950289131       0.175394321264
38 1       1.004240000000       1.452630000000       5.688540000000       0.021435567463      -0.074011978131       0.175400270247
39 1       1.077180000000       8.218490000000       1.452630000000       0.175479628094      -0.021512750603      -0.074011235621
40 1       1.077180000000       1.004240000000       3.158740000000       0.175394321264       0.021452217527       0.073950289131
41 1       1.452630000000       5.688540000000       1.004240000000      -0.074011978131       0.175400270247       0.021435567463
42 1       1.452630000000       3.534180000000       3.607130000000      -0.074013404174      -0.175405451061      -0.021527811873
43 1       1.452630000000       1.077180000000       8.218490000000      -0.074011235621       0.175479628094      -0.021512750603
44 1       1.452630000000       8.145550000000       5.615600000000      -0.074013285902      -0.175446422608       0.021514023990
45 1       3.158740000000       3.534180000000       5.615600000000       0.073957851993      -0.175318598636       0.021457469370
46 1       3.158740000000       1.077180000000       1.004240000000       0.073950289131       0.175394321264       0.021452217527
47 1       3.158740000000       8.145550000000       3.607130000000       0.073930881174      -0.175503615718      -0.021612486825
48 1       3.158740000000       5.688540000000       8.218490000000       0.073934970006       0.175455919910      -0.021524219941
49 1       3.534180000000       3.607130000000       1.452630000000      -0.175405451061      -0.021527811873      -0.074013404174
50 1       3.534180000000       5.615600000000       3.158740000000      -0.175318598636       0.021457469370       0.073957851993
51 1       3.607130000000       1.452630000000       3.534180000000      -0.021527811873      -0.074013404174      -0.175405451061
52 1       3.607130000000       3.158740000000       8.145550000000      -0.021612486825       0.073930881174      -0.175503615718
53 1       5.615600000000       1.452630000000       8.145550000000       0.021514023990      -0.074013285902      -0.175446422608
54 1       5.615600000000       3.158740000000       3.534180000000       0.021457469370       0.073957851993      -0.175318598636
55 1       5.688540000000       8.218490000000       3.158740000000       0.175455919910      -0.021524219941       0.073934970006
56 1       5.688540000000       1.004240000000       1.452630000000       0.175400270247       0.021435567463      -0.074011978131
57 1       3.534180000000       1.004240000000       6.063990000000      -0.175304286040       0.021431389086      -0.074022737218
58 1       3.534180000000       8.218490000000       7.770100000000      -0.175380215868      -0.021503971036       0.073950146471
59 1       3.607130000000       6.063990000000       5.688540000000      -0.021559703964      -0.074043708677       0.175480497885
60 1       3.607130000000       7.770100000000       1.077180000000      -0.021560281556       0.073986436329       0.175494830403
61 1       5.615600000000       7.770100000000       5.688540000000       0.021473289210       0.073992572321       0.175413927141
62 1       5.615600000000       6.063990000000       1.077180000000       0.021477890854      -0.074064420387       0.175417354549
63 1       5.688540000000       3.607130000000       6.063990000000       0.175480497885      -0.021559703964      -0.074043708677
64 1       5.688540000000       5.615600000000       7.770100000000       0.175413927141       0.021473289210       0.073992572321
65 1       6.063990000000       1.077180000000       5.615600000000      -0.074064420387       0.175417354549       0.021477890854
66 1       6.063990000000       8.145550000000       8.218490000000      -0.074001164094      -0.175487759308      -0.021576597410
67 1       6.063990000000       5.688540000000       3.607130000000      -0.074043708677       0.175480497885      -0.021559703964
68 1       6.063990000000       3.534180000000       1.004240000000      -0.074022737218      -0.175304286040       0.021431389086
69 1       7.770100000000       8.145550000000       1.004240000000       0.073944632688      -0.175422732549       0.021499992582
70 1       7.770100000000       5.688540000000       5.615600000000       0.073992572321       0.175413927141       0.021473289210
71 1       7.770100000000       3.534180000000       8.218490000000       0.073950146471      -0.175380215868      -0.021503971036
72 1       7.770100000000       1.077180000000       3.607130000000       0.073986436329       0.175494830403      -0.021560281556
73 1       8.145550000000       8.218490000000       6.063990000000      -0.175487759308      -0.021576597410      -0.074001164094
74 1       8.145550000000       1.004240000000       7.770100000000      -0.175422732549       0.021499992582       0.073944632688
75 1       8.218490000000       6.063990000000       8.145550000000      -0.021576597410      -0.074001164094      -0.175487759308
76 1       8.218490000000       7.770100000000       3.534180000000      -0.021503971036       0.073950146471      -0.175380215868
77 1       1.004240000000       6.063990000000       3.534180000000       0.021431389086      -0.074022737218      -0.175304286040
78 1       1.004240000000       7.770100000000       8.145550000000       0.021499992582       0.073944632688      -0.175422732549
79 1       1.077180000000       3.607130000000       7.770100000000       0.175494830403      -0.021560281556       0.073986436329
80 1       1.077180000000       5.615600000000       6.063990000000       0.175417354549       0.021477890854      -0.074064420387
