ITEM: TIMESTEP
0
ITEM: NUMBER OF ATOMS
30
ITEM: BOX BOUNDS xy xz yz pp pp pp
-2.4913480660000000e+00 4.9826961519999999e+00 -2.4913480660000000e+00
0.0000000000000000e+00 4.3151418589999997e+00 0.0000000000000000e+00
0.0000000000000000e+00 1.3413774749000000e+01 0.0000000000000000e+00
ITEM: ATOMS id type x y z fx fy fz
1 2       0.000000000000       0.000000000000       1.933450000000       0.000000803749      -0.000031330254      -0.046707905962
2 2       0.000000006667       2.876760000000       0.302180000000      -0.000014891947      -0.000014656613       0.046677369136
3 2       2.491350003333       1.438380000000       2.537800000000      -0.000022838320       0.000025361947       0.046745252971
4 2       0.000000006667       2.876760000000       4.169090000000      -0.000019850601       0.000007029581      -0.046817228126
5 2       2.491350003333       1.438380000000       6.404710000000      -0.000078899353       0.000012830447      -0.046676650381
6 2       0.000000000000       0.000000000000       4.773440000000      -0.000025378925       0.000000416077       0.046640569393
7 2       0.000000006667       2.876760000000       7.009070000000       0.000007653676      -0.000009162968       0.046677718203
8 2       0.000000000000       0.000000000000       8.640340000000       0.000037396879      -0.000055371473      -0.046755844664
9 2       0.000000006667       2.876760000000      10.875970000000       0.000038476821       0.000017075594      -0.046695868498
10 2       2.491350003333       1.438380000000       9.244690000000      -0.000035131116       0.000014956017       0.046755019232
11 2       0.000000000000       0.000000000000      11.480320000000       0.000013635216       0.000023292863       0.046776281896
12 2       2.491350003333       1.438380000000      13.111590000000      -0.000054696246       0.000007956240      -0.046622129672
13 1      -0.754889996970       1.307510000000       3.353440000000      -0.043752054755       0.075820924681       0.000059037004
14 1       1.509790000000       0.000000000000       3.353440000000       0.087433045460      -0.000053089352       0.000077003964
15 1       1.736450006970       3.007630000000       3.353440000000      -0.043664020864      -0.075793520796       0.000045355498
16 1       3.246240000303       0.130860000000       1.117810000000       0.043780343411      -0.075642534852       0.000048088931
17 1       3.246240006363       2.745890000000       1.117810000000       0.043706676298       0.075782957754       0.000057403524
18 1       0.981560003333       1.438380000000       1.117810000000      -0.087440437494      -0.000051643232       0.000026177984
19 1       1.736450006363       2.745890000000       7.824700000000      -0.043576868966       0.075779073564       0.000097926533
20 1       4.001140003333       1.438380000000       7.824700000000       0.087373178147      -0.000042730590       0.000050526482
21 1       1.736460000303       0.130860000000       7.824700000000      -0.043836252190      -0.075627468714       0.000083923557
22 1       0.754890003637       1.569250000000       5.589080000000       0.043734704866      -0.075777499419      -0.000069831374
23 1       0.754890009697       4.184280000000       5.589080000000       0.043815202482       0.075638561473      -0.000109028820
24 1      -1.509789993333       2.876760000000       5.589080000000      -0.087434456496       0.000079124511      -0.000101678902
25 1      -0.754889990303       4.184280000000      12.295960000000      -0.043810107413       0.075644787760      -0.000063022342
26 1       1.509790006667       2.876760000000      12.295960000000       0.087397595329       0.000046376777      -0.000063302607
27 1      -0.754899996363       1.569250000000      12.295960000000      -0.043560975368      -0.075773514357      -0.000082009326
28 1      -1.736449993030       3.007630000000      10.060330000000       0.043647799983      -0.075797563626      -0.000046265855
29 1       0.754890003030       1.307510000000      10.060330000000       0.043804528558       0.075796861410      -0.000010866617
30 1       3.472910000000       0.000000000000      10.060330000000      -0.087464180822      -0.000027500449       0.000003978835
