ITEM: TIMESTEP
0
ITEM: NUMBER OF ATOMS
160
ITEM: BOX BOUNDS pp pp pp
0.0000000000000000e+00 8.4545245520000005e+00
0.0000000000000000e+00 8.4545245520000005e+00
0.0000000000000000e+00 2.5363573656000000e+01
ITEM: ATOMS id type x y z fx fy fz
1 2       1.225180000000       5.248320000000      22.310140000000      -0.392919304883       0.183713332887      -0.036837992528
2 2       5.253960000000       0.854410000000      13.805530000000       0.044808404322       0.048965519852      -0.256576529602
3 2       7.228430000000       7.475610000000       7.458650000000       0.003952970903      -0.227378227745      -0.195442436688
4 2       7.359250000000       7.203140000000      15.920560000000       0.052662020013       0.528230978976       0.047068411682
5 2       5.277700000000       5.298300000000       0.991810000000       0.302587978552       0.059071213878      -0.052383509955
6 2       3.060310000000       3.235070000000       7.278030000000       0.149213030410      -0.171395536298       0.105768119084
7 2       0.963090000000       1.057180000000       1.096290000000       0.114279960785       0.178896181446      -0.138622017203
8 2       5.219880000000       1.035830000000       5.292360000000      -0.020327874124       0.208924347394      -0.108850976132
9 2       3.214030000000       2.997060000000      15.808680000000      -0.072766279840       0.144308987908       0.017859718996
10 2       5.435640000000       1.128730000000      22.123970000000      -0.017077038588       0.059646827088       0.234186638429
11 2       3.172040000000       7.325290000000      11.625660000000      -0.151297504382       0.061249488001      -0.050494980966
12 2       7.496320000000       3.230010000000      20.003680000000      -0.114730956397      -0.439770975729       0.081958878758
13 2       1.031020000000       5.148380000000      13.614670000000      -0.019017955809       0.240810334620       0.086130966170
14 2       7.396890000000       3.253950000000       3.235880000000      -0.340270203195      -0.069891593699       0.053881593781
15 2       5.146050000000       5.378990000000       9.465800000000       0.233395009070      -0.040807692614       0.156530295469
16 2       7.432730000000       7.515160000000      24.333410000000       0.009574277665      -0.262508358032      -0.057012524819
17 2       3.223550000000       7.522980000000      20.117270000000       0.113984400222      -0.223688627127      -0.122563258564
18 2       0.924020000000       1.083660000000       9.618510000000       0.173892612765      -0.192971027027      -0.191373853509
19 2       3.256460000000       7.496550000000       3.134470000000      -0.114826837616      -0.171725832041       0.061621708037
20 2       1.191310000000       1.041960000000      17.992750000000      -0.282653889362      -0.079072103309      -0.129705272479
21 2       3.974540000000       0.188250000000       8.465000000000       0.060442104177      -0.043379452384       0.018884222087
22 2       6.194970000000       6.175830000000      12.659420000000       0.340600952248      -0.042675383234      -0.167359077155
23 2       2.181820000000       2.148970000000      21.151790000000      -0.000976829128      -0.106176913052       0.076304906523
24 2       6.470660000000       6.362210000000      21.110700000000      -0.024661645397      -0.014817758645       0.367146452692
25 2       1.984960000000       6.466700000000       8.367550000000      -0.157085999980      -0.230018733173      -0.036078597545
26 2       8.400250000000       2.084620000000       6.302520000000      -0.277884241869      -0.194924827575       0.143540124852
27 2       2.014890000000       2.118890000000       4.264680000000       0.163683820575      -0.098225687824      -0.253093596210
28 2       0.058370000000       2.035570000000      14.765830000000      -0.175472410289      -0.081493769598       0.363016865188
29 2       0.162350000000       6.268290000000      18.975420000000       0.070436693653       0.352342992707       0.325243106913
30 2       6.330710000000       0.055710000000       2.122630000000       0.018608421341      -0.014382178400      -0.046793395398
31 2       6.154630000000       0.071970000000      10.629600000000       0.442811997875      -0.125855653569       0.227683329959
32 2       4.209960000000       2.218430000000      18.975070000000       0.363240803509       0.121680629470      -0.242592292656
33 2       6.473540000000       8.423860000000      19.032710000000      -0.232180342497       0.499473642845      -0.259334597068
34 2       6.419060000000       2.061810000000      16.887010000000      -0.075096001556      -0.486692569009       0.302340149359
35 2       0.162860000000       2.080950000000      23.308470000000      -0.022126205704       0.276269355075       0.099634003557
36 2       2.059380000000       8.245130000000      14.886970000000      -0.144986669261       0.116243640579       0.021354781800
37 2       4.047050000000       6.090360000000      14.802460000000       0.166630680270       0.082314211230       0.139731202354
38 2       6.296820000000       4.241350000000       6.374020000000      -0.263331869884       0.227000960205      -0.341937157309
39 2       4.255450000000       6.442680000000      23.289160000000       0.347145069904       0.428546162056      -0.148331973747
40 2       0.097920000000       4.226760000000      16.902110000000       0.167170368513      -0.305891558181      -0.144150068292
41 2       2.104500000000       4.281580000000       2.113080000000      -0.000754453158      -0.009563842375      -0.013479949966
42 2       4.167840000000       4.351410000000      21.081040000000       0.301479513378      -0.063580685373      -0.258966498289
43 2       4.178400000000       8.264040000000      16.969050000000       0.446964985875       0.100234115458       0.247980116980
44 2       6.376690000000       4.280200000000      23.191030000000       0.392185719389      -0.093821750597       0.345584503801
45 2       8.391910000000       6.278380000000      10.542050000000      -0.175383655143       0.243158014088       0.272493116313
46 2       8.440930000000       8.377250000000      12.710720000000      -0.164261230796      -0.170034817398      -0.227434756084
47 2       0.019930000000       4.322240000000       0.045760000000      -0.355241309563      -0.099134787552      -0.323047566173
48 2       6.272730000000       4.103130000000      14.766640000000       0.143827361155       0.006693320866      -0.318472738537
49 2       4.189150000000       4.229650000000       4.181180000000       0.357089932771       0.143670410376       0.285926518295
50 2       2.143200000000       2.053320000000      12.611140000000       0.297876430115      -0.239003980861       0.236218087356
51 2       2.111030000000       4.156670000000      10.585210000000       0.157600279290       0.281442188675      -0.224270610082
52 2       0.039810000000       6.502000000000       2.215810000000       0.070273939645      -0.243889991365       0.062859588337
53 2       0.204820000000       8.414970000000      21.236340000000      -0.256338100058      -0.044388623724      -0.001186246993
54 2       4.161540000000       2.052010000000       2.004320000000      -0.038946248506       0.242953524703      -0.034292281954
55 2       6.265680000000       2.067760000000      25.314850000000      -0.085275780361       0.320759221048      -0.150913291550
56 2       8.435120000000       4.172080000000       8.453360000000      -0.099400762072       0.150790341401      -0.029070851360
57 2       6.139830000000       2.182070000000       8.555500000000       0.205251740130       0.146428009791       0.000680071639
58 2       4.061400000000       6.482900000000       6.285430000000       0.042527982785      -0.383230201538      -0.260545749121
59 2       6.397680000000       6.489900000000       4.284770000000       0.119754555008      -0.403327276704       0.135396748136
60 2       2.201990000000       6.444190000000      25.335780000000      -0.252829302803       0.100056744040       0.202012165552
61 2       5.207280000000       3.148290000000      11.667330000000      -0.080389574101      -0.031850716662       0.027637650374
62 2       3.208090000000       1.075970000000      24.282450000000       0.113529664080      -0.197429244238       0.088774229266
63 2       3.192000000000       5.222050000000      17.958600000000      -0.002769065034      -0.003256978529      -0.037787635411
64 2       0.997270000000       7.474670000000       5.281980000000      -0.048931365574       0.062898841393      -0.071933496106
65 1       2.142230000000       2.158850000000       2.136890000000       0.270880770664       0.132576453799       0.249208636827
66 1       6.213730000000       6.286890000000       6.302860000000       0.060549857176      -0.125677504762      -0.196278036866
67 1       4.309580000000       8.379530000000       6.490600000000       0.007659148355       0.129221250690      -0.140548842953
68 1       4.350150000000       0.131330000000       2.126650000000      -0.035764676555      -0.038872372173      -0.028490634386
69 1       8.328330000000       6.449020000000       4.153110000000       0.261771175459       0.019985334223       0.232474022846
70 1       0.037600000000       2.224110000000       4.318560000000       0.154854570852      -0.113997247091       0.139619891992
71 1       6.244760000000       4.198400000000       8.426790000000       0.235304229514      -0.298567474646      -0.116866691742
72 1       1.908700000000       4.496030000000       0.249760000000      -0.073126171683      -0.168852850544       0.168024009907
73 1       8.441570000000       4.396150000000       2.100790000000       0.278394381095       0.084091104381      -0.120748791879
74 1       8.176480000000       4.039450000000       6.592210000000      -0.023734876583       0.061668381407       0.155170916038
75 1       4.333820000000       2.100700000000       0.063160000000      -0.276651765577       0.021925829518      -0.161367794284
76 1       4.053220000000       6.433550000000       8.320860000000      -0.155777173040       0.107658993916      -0.110622782268
77 1       2.128520000000       0.079790000000       4.213040000000       0.093568339586       0.203698660508      -0.024899368039
78 1       6.194970000000       8.395940000000       4.125960000000      -0.012151410102       0.218771627011       0.044828152226
79 1       2.126120000000       6.478090000000       6.423540000000      -0.198040841737       0.045337327202      -0.272855833565
80 1       6.281080000000       2.137950000000       2.050070000000      -0.088757889961      -0.206806971456      -0.091343993307
81 1       4.226210000000       4.158500000000       2.122690000000      -0.286989202083      -0.106361298143       0.137969758177
82 1       4.259960000000       4.369840000000       6.223910000000      -0.150651903309      -0.104271714555      -0.022533313324
83 1       8.256230000000       2.119360000000       8.447100000000      -0.035138359785       0.225424597238      -0.278408304259
84 1       0.041130000000       6.364680000000       0.084680000000       0.338114804689      -0.105459903822      -0.081133096492
85 1       8.314050000000       0.066100000000       6.362640000000       0.115927297969       0.229812379910      -0.024150776060
86 1       8.314360000000       8.425270000000       2.099340000000       0.033001607996       0.031971895276       0.030344931674
87 1       4.276790000000       6.288480000000       4.278140000000      -0.108824576710       0.017628112062       0.127340627663
88 1       4.162060000000       2.186930000000       4.152290000000      -0.286079279968       0.052838617748       0.065910311079
89 1       6.312780000000       2.179150000000       6.407390000000       0.296221271010       0.035127118552       0.003558321217
90 1       2.072030000000       6.399860000000       2.087840000000      -0.280421021805      -0.113410735874      -0.202245584638
91 1       2.301810000000       4.067520000000       3.974070000000       0.085310860570       0.162516371426      -0.130248821964
92 1       6.216910000000       4.361650000000       4.315100000000       0.097497769226       0.028046213462       0.064263132729
93 1       6.456480000000       0.158160000000       0.113380000000       0.017866132511      -0.155858491673      -0.012325110763
94 1       2.067950000000       8.405570000000       8.629530000000       0.114503579513       0.336834473382       0.075945048897
95 1       6.381790000000       6.419810000000       2.177890000000       0.074825119470       0.189197814015       0.136360330436
96 1       1.925070000000       2.208190000000       6.217070000000      -0.043322458892      -0.126551657331       0.109376213738
97 1       2.011380000000       2.181290000000      10.653570000000       0.241900647814       0.068068968460       0.015230532454
98 1       6.263150000000       6.174460000000      14.724580000000      -0.154322390445      -0.227864906113      -0.189198066898
99 1       4.148970000000       8.269060000000      14.938560000000      -0.062749236263      -0.214657383720       0.149901862570
100 1       4.260020000000       8.268690000000      10.430210000000      -0.188867228967       0.040537988848       0.121770270055
101 1       8.307100000000       6.346430000000      12.581750000000       0.037783812953      -0.109197836731      -0.070799367633
102 1       0.187360000000       1.796760000000      12.899770000000      -0.123650983227      -0.032331456352      -0.052735331743
103 1       6.623570000000       3.926650000000      16.647590000000      -0.136389069866      -0.003952671692       0.012756536152
104 1       2.044090000000       4.351330000000       8.460150000000      -0.214392335102       0.009077669502       0.269042521704
105 1       0.141960000000       4.403510000000      10.314380000000      -0.097522378204       0.020484487314      -0.129913412437
106 1       0.010750000000       4.054550000000      14.802220000000      -0.183573789043      -0.039469968785       0.245880695031
107 1       4.197090000000       2.099760000000       8.278140000000      -0.367320324016      -0.121170952066      -0.084083725638
108 1       4.138690000000       6.350820000000      16.782420000000      -0.072062490453      -0.070980654831       0.325539440190
109 1       2.049230000000       8.414210000000      12.737300000000      -0.034274162110       0.280745313220      -0.118559177434
110 1       6.392540000000       8.291960000000      12.634300000000       0.075781696523       0.119474715955      -0.144269112981
111 1       2.126410000000       6.317650000000      14.617440000000       0.079821184904      -0.372067901801      -0.113657732485
112 1       6.157710000000       2.011910000000      10.492680000000      -0.012488285083       0.194170273095       0.235414551494
113 1       4.142980000000       4.275150000000      10.576920000000      -0.238039091938      -0.133949463210       0.093838118006
114 1       4.318960000000       4.180200000000      14.902650000000      -0.061508726535       0.213223015736       0.023956240173
115 1       0.032910000000       2.049380000000      16.803560000000      -0.026396725751       0.238712471778       0.076250625571
116 1       8.416030000000       6.361060000000       8.484020000000       0.286265681645      -0.229167160302       0.153219183333
117 1       0.045830000000       8.330260000000      14.799390000000       0.257854295836       0.116339023410      -0.083660829736
118 1       8.265910000000       8.323790000000      10.673460000000       0.159100763763       0.122417285609       0.033592416459
119 1       4.299710000000       6.424710000000      12.833620000000      -0.108645162558      -0.004894159554      -0.033569501901
120 1       4.193290000000       1.964840000000      12.734370000000      -0.240364906993      -0.011124287219      -0.036196727256
121 1       6.434080000000       1.979480000000      14.826190000000       0.210143959462       0.356427607302       0.090818157170
122 1       2.011530000000       6.260060000000      10.503640000000      -0.052771414568      -0.236858819841       0.014377904069
123 1       2.049030000000       4.034950000000      12.541880000000       0.105642514640      -0.001759353890       0.019897061669
124 1       6.244560000000       4.244100000000      12.808190000000      -0.136932190533      -0.215933202247      -0.224971808778
125 1       6.172190000000       0.110240000000       8.593710000000      -0.122114269775       0.171702062231       0.143255521472
126 1       2.253300000000       0.063040000000      16.811920000000      -0.217521952072      -0.081925006499       0.122358389116
127 1       6.350980000000       6.374720000000      10.618090000000       0.120300055523      -0.093287646292       0.251586210357
128 1       2.117980000000       1.899050000000      14.714730000000      -0.274831051746       0.046891009920      -0.296953425451
129 1       2.297080000000       2.010980000000      19.143010000000      -0.063990748022      -0.077420101276       0.017095560084
130 1       6.394630000000       6.372410000000      23.154260000000      -0.217731479149      -0.044186232459       0.052643986667
131 1       4.364690000000       0.037990000000      23.202490000000      -0.008987024982      -0.275006661834       0.035660866697
132 1       4.413820000000       0.066480000000      18.955600000000       0.006380076614      -0.197579473844      -0.042580023583
133 1       0.115190000000       6.406190000000      21.170610000000       0.006756811008       0.146931334704      -0.249886780753
134 1       0.115990000000       2.095730000000      21.197680000000       0.231608049586       0.045729787492       0.131408784917
135 1       6.453930000000       4.195690000000      25.267290000000      -0.100713125247      -0.060120789519      -0.057523924757
136 1       2.124650000000       4.076930000000      16.891370000000      -0.145019403346       0.062696833528       0.015617411136
137 1       0.047020000000       4.295510000000      18.880770000000       0.156560167180       0.151804781540      -0.088147889988
138 1       8.415010000000       4.180890000000      23.356050000000       0.121299978032       0.101518650501       0.003198949704
139 1       4.383580000000       1.963500000000      16.984050000000       0.052698237328       0.187470153284       0.043435054918
140 1       4.186670000000       6.327430000000      25.262730000000      -0.154252429632       0.111456908937      -0.107732641735
141 1       2.110980000000       0.145280000000      21.121110000000       0.024994841903      -0.041550569204       0.024390199965
142 1       6.542430000000       0.019070000000      21.062010000000       0.031564573624      -0.324050522808      -0.186304104889
143 1       2.282500000000       6.350210000000      23.381300000000      -0.041310635568       0.111182666837      -0.073804847097
144 1       6.356700000000       2.016330000000      18.938120000000      -0.083718060874       0.050416504882      -0.085588812981
145 1       4.229900000000       4.153410000000      19.135400000000      -0.051351961953       0.177610456655      -0.334274501165
146 1       4.518450000000       4.513880000000      22.967740000000       0.001115249110      -0.148180554080      -0.029359118354
147 1       8.389550000000       2.264050000000      25.316370000000       0.121488196791       0.018321136395      -0.124083682758
148 1       0.010460000000       6.187250000000      17.000660000000       0.271356986622      -0.081999778068       0.027376642688
149 1       8.364320000000       0.164750000000      23.149970000000       0.023467834779      -0.170335873465       0.124988186645
150 1       0.058850000000       8.420440000000      19.100930000000       0.004310518606      -0.316895277719      -0.087224788751
151 1       4.392490000000       6.412190000000      21.152320000000       0.084051065576      -0.276884698638       0.186494265884
152 1       4.286960000000       2.220430000000      21.033370000000      -0.270195297077       0.233127808154      -0.105758076047
153 1       6.468310000000       2.265150000000      23.299600000000      -0.020833062210       0.061865840578       0.129650595611
154 1       2.170460000000       6.374090000000      19.057010000000      -0.083483939220       0.106599930649       0.046955968344
155 1       2.245580000000       4.123180000000      21.239260000000      -0.055922814226       0.034573502957      -0.040042443193
156 1       6.441750000000       4.339020000000      21.151370000000      -0.291133678241       0.111300888449       0.106307366009
157 1       6.302540000000       0.005180000000      16.985160000000       0.094927626417       0.031877326069       0.095753375026
158 1       2.092040000000       0.017080000000       0.015680000000      -0.077365306325      -0.141630460779       0.010552365874
159 1       6.682530000000       6.543430000000      19.243170000000      -0.166854226922      -0.001645839368      -0.057430529596
160 1       2.073050000000       2.067080000000      23.153650000000       0.144334450672      -0.064837256319       0.168255547860
