ITEM: TIMESTEP
0
ITEM: NUMBER OF ATOMS
160
ITEM: BOX BOUNDS pp pp pp
0.0000000000000000e+00 8.4545245520000005e+00
0.0000000000000000e+00 8.4545245520000005e+00
0.0000000000000000e+00 2.5363573656000000e+01
ITEM: ATOMS id type v_vir_xx v_vir_yy v_vir_zz v_vir_xy v_vir_xz v_vir_yz
1 2      -2.747398438233      -0.622699097765      -0.683671040251       0.036712030785      -0.228039843530      -0.147937961339
2 2      -2.814995672333      -1.982070351019      -2.556265514825      -0.304428296483       0.367984404906       0.191583359744
3 2      -1.833922096499      -2.671702639382      -2.318303313680       0.379601390778       0.510284820468       0.005074437335
4 2      -0.369504588588      -2.414303733221      -2.439199883222       0.222695542108      -0.262314778736       0.525913654949
5 2      -2.475600742829      -0.425678853959      -2.237783748839       0.053449970396      -0.112181121386       0.088549601096
6 2      -2.684270853066      -0.686209820586      -1.269189886183       0.257384190497      -0.065879428996      -0.239772321628
7 2      -2.004123221159      -2.949973838548      -0.712276347676      -0.638113577227       0.069332805159      -0.096123665390
8 2      -0.281820053568      -3.319354749927      -2.332976784853       0.089906793964      -0.249264457276      -0.346425925653
9 2      -3.310103900566      -2.145987786275      -0.656749531869      -0.553082327895       0.048727606510      -0.316045689508
10 2      -1.930832511680      -2.756478933366      -2.346972491725       0.367909692820       0.168818790506      -0.271991810169
11 2      -3.351029659881      -0.668274532620      -2.528195709706      -0.006034289879       0.246232277699      -0.070006788776
12 2      -0.269805924086      -2.430297604573      -2.382246446321       0.051662657761       0.456247782094       0.430661608242
13 2      -0.846109240195      -2.740529537477      -1.498451632707      -0.309767881557       0.502762863453      -0.191934257704
14 2      -2.387749965737      -0.427832904475      -2.299356184971       0.074907472568      -0.097916252336       0.059482000576
15 2      -2.767066514655      -1.888313812414      -2.307979099328       0.434653142481       0.157249182264       0.447459842330
16 2       0.021955720885      -3.156505436827      -2.621623132357      -0.155474263670      -0.289310421731      -0.093934335763
17 2      -2.803580808756      -2.189110964945      -0.769602796417       0.538610653147      -0.007310363928       0.101541419477
18 2      -0.674563005400      -2.752269573988      -1.291449145313       0.132626229288      -0.223836285251      -0.269089828979
19 2      -2.012684994085      -2.949799623786      -0.748571385826      -0.625836906193       0.115226588812      -0.084756018601
20 2      -3.241385915601      -0.107736108068      -2.656012402347       0.225555410466       0.186835446909       0.491524827865
21 2      -1.594668549967      -1.709986935722       0.511288467126      -0.393571766234       0.081072217545       0.116836663967
22 2      -1.020805282626      -1.144149724956      -2.840345656434      -0.467709127389      -0.542248563562       0.217682623633
23 2      -2.637797412192       0.098352873455       0.272670320770      -0.001141082764       0.201779169469       0.486767404470
24 2      -1.590625405255      -2.321648199502      -2.011306733026      -0.574618053211       1.075540671213       0.825515595455
25 2      -2.413355600026      -0.466615721757      -0.990863554043      -0.155274815945       0.185529086460       0.953330999030
26 2      -1.379071726793       0.630397037154      -1.238673453019       0.196876445990       0.091073870614      -0.517279871023
27 2      -1.225477504421       1.024811871465      -1.605264906536      -0.278061799380       0.133814041829       0.218073854477
28 2      -2.080236482586      -1.897104865927      -2.167318511430       0.632154700023       0.929315731951      -1.065274230054
29 2       0.583277755736      -1.254378278102      -1.122272099351       0.057822531351       0.382292183427      -0.340305028521
30 2       0.214604252675      -2.548250782476       0.500097735714       0.543245287644       0.056769187500       0.370800873480
31 2      -0.962227400593      -1.243233513349      -2.896748233120       0.358624172890       0.817895803737       0.141143417197
32 2      -0.857262869814      -0.824234640080      -2.918585596988       0.353307367168      -0.432085325432       0.285841744366
33 2      -1.952731058952      -2.052881266124      -2.478020521487       0.531573694152      -0.001053228013       0.726763153068
34 2      -2.132394787781      -1.878912296278      -2.784935469872      -0.544505136009      -0.105041961981       0.883662354044
35 2      -1.173083075453      -0.901501334824      -2.352303353191       0.284897700865       0.281496903675       0.852911350183
36 2      -2.328602597665      -0.819856779842      -1.062814438495       0.908420536224      -0.214724107534       0.258431756519
37 2      -1.408305731717      -1.745938590217       0.456798897669      -0.252156426282       0.599913039327       0.236801125703
38 2      -1.783757496203      -2.118938512477      -2.283703205751       0.411879410674      -0.350403863578      -0.039187754986
39 2      -1.330434927389       0.934271180132      -1.547380298228       0.181032024737      -0.174216358812      -0.476148812569
40 2       0.817281635973      -1.536950319986      -1.725897446732      -0.176136915366      -0.290434958720       0.010890398459
41 2      -2.232183882800      -2.023649826856      -1.490360992390       0.007925212605      -0.975897520097       1.052883755553
42 2      -1.033761800850      -2.247813909167      -0.160574060685       0.479626355200      -0.767558466047      -0.313566283857
43 2      -1.039280034706      -1.074362786285      -2.953800995326      -0.349003486599       0.804551310859       0.002298464357
44 2      -1.876119486726      -2.329362665796      -2.499781081107       0.526563835678      -0.482520503549       0.031349277174
45 2      -2.179109580314      -1.879284475957      -2.446323103897       0.470124679412       0.070513508748      -0.463840334814
46 2      -2.112147301965      -1.992409430177      -2.152432412760      -0.305886130467       0.153785836002      -0.447789998570
47 2      -1.836654477737      -2.076542594614      -2.225135285500      -0.493059854497      -0.562060711049       0.062863379255
48 2      -1.039509534000      -2.367642302095      -0.487952948506      -0.416726067790      -0.897848270018       0.382444059355
49 2      -1.831182815866      -2.112297277314      -2.389784923045      -0.559090087477      -0.607342947928       0.186087533437
50 2       0.559614769149      -1.439730605263      -1.519627908472      -0.189907001641       0.425277091343      -0.038999771061
51 2       0.776271356215      -1.353246854342      -1.522713281037       0.147637685488      -0.356407082547      -0.108232855296
52 2      -2.047416827240      -0.823829973750      -0.751035979829       0.038300988070       0.296727742658      -0.550668796710
53 2      -1.042293891550      -2.143044073989      -0.702399683697      -0.688476926511       0.096000868571      -0.411751753451
54 2      -2.034789095105      -0.808324241514      -0.679963138159       0.068187718108       0.336573707830      -0.551820257067
55 2      -0.898927154768      -0.805460492822      -2.275630406381      -0.201341331326       0.005757611208      -0.464745438310
56 2      -2.050984915379      -2.021330413286      -1.400562382460      -0.069126448974      -0.988458546062      -1.135845061866
57 2      -0.412963719379      -2.449470456817      -0.968517015951      -0.184012016768       0.979885064783       0.062557886737
58 2      -1.282152137730      -0.952101287472      -2.852356063851       0.416525635811       0.242762492473       0.770866086496
59 2      -0.836278642802      -0.811213448418      -2.315871151736      -0.230441495992       0.141758180066      -0.426561331989
60 2      -1.186939465976       0.951782385887      -1.597900403776      -0.267769064728       0.219774945889       0.093053609513
61 2       0.642168794871      -1.243249236013      -1.185239384038       0.014044399612       0.040111385906       1.115471843449
62 2      -0.992918089235       0.406009581646      -0.990893128903       0.050559361844       1.084845897043       0.191020866863
63 2       0.421910461153      -1.063460463000      -0.936972995572       0.049673715729      -0.012083896678      -1.197927916543
64 2      -1.076836600756       0.534536912492      -1.050575863577       0.048095807733       1.130831801332       0.035948145850
65 1       2.638251582821       2.218750758339       1.978936600294       0.396267856424       0.122013189983       0.147307287084
66 1       2.060210910242       2.165753515130       2.584885462321       0.438077779253       0.331876415243       0.293368679944
67 1       0.167214032532       1.512547723173       2.246045920613      -0.255938191188      -0.245543706874      -0.584880956368
68 1       1.250187026490       1.550969310620      -0.203681458245       0.380480301162      -0.047026172516       0.024319064818
69 1       1.830713297984       0.399085536539       1.750324465762       0.027354688974       0.412165784037      -0.023452811147
70 1       1.796769828532       0.466051179785       1.673755682208      -0.144625594251       0.420159978490      -0.229951681813
71 1       2.002288286630       2.117282898449       1.534866483499      -0.445266738075      -0.297534782411       0.312691125467
72 1       0.892253346287       1.377292703078       0.883807453657      -0.097780984276       0.317592427478      -0.019507842974
73 1       2.186194819327       2.081544787529       1.688129856733       0.407051735087      -0.568438808572      -0.340720017764
74 1       0.722411770182       1.414039241019       1.093279459484       0.234391974547       0.346293636510      -0.009402359540
75 1       1.832291714281       0.431612632529       1.740585271346       0.040743729854       0.511999758020       0.004182995121
76 1       2.099293100396       1.799004397325       1.779855832307      -0.637760295578       0.674346407663      -0.785971132570
77 1       1.012398745815       1.812112913164       0.619447499711      -0.203298999536      -0.282593779352       0.100265772073
78 1      -0.140878128474       1.671570916118       1.767839821062       0.089769733457      -0.239555299584       0.411680789280
79 1       1.788298727399       0.461230954948       1.848823692839      -0.014578737326       0.460563795950      -0.078990457020
80 1       2.153589006385       2.001168239793       2.184492991446       0.684954222714       0.744794988914       0.740300080641
81 1       2.199641476153       2.100711715040       1.679693883604       0.425668384184      -0.585836618847      -0.335572536539
82 1       2.263902132141       2.103904884128       1.795976382917       0.249160180923      -0.380098536622      -0.264489709175
83 1       2.602165698407       2.234091090195       2.059742246148      -0.392774679851       0.154372950687      -0.419672208892
84 1       2.090418080370       2.016394453150       2.870761477650      -0.135714785858       0.354858815687      -0.569248389724
85 1       0.839624117999       1.503052588159       0.845341031794       0.097227642631      -0.444617151464      -0.054558970868
86 1       1.355314845212       1.553364961862      -0.100742787969       0.401157585685      -0.036500509964       0.015189897190
87 1       2.296462116844       2.390226798175       2.382948503097      -0.429366271997       0.360013063478      -0.222933061821
88 1       2.094339445372       2.046583366550       2.861693206921      -0.128007429728       0.371642280539      -0.679221905225
89 1       1.742182180885       2.289709589911       2.628246436436       0.098968663931       0.449094942075       0.659612016473
90 1       2.699258905865       2.222406240730       2.003167520529       0.398277792322       0.125345136271       0.159684524306
91 1       0.767227470299       1.289716599962       0.927794776215      -0.138206448441       0.325483378786      -0.029602293376
92 1       1.952320522810       2.114509264968       2.282118562648      -0.226226996798      -0.420623170175       0.442742989731
93 1      -0.269944207906       1.603093369086       1.726299994979       0.145071907759      -0.111816922460       0.361258802626
94 1       1.516998676877       1.654274000467       0.466937090661      -0.353379465179      -0.363259643952      -0.094740446543
95 1       2.119948568006       1.995687730118       2.099877500570       0.682325653103       0.764127618273       0.768045545901
96 1       1.930841889128       0.762010367295       1.550191190539       0.167114360035       0.116662548957       0.011064922649
97 1       0.815035379174       1.859058530096       1.515817888608       0.184050667092       0.219043481076       0.069519652912
98 1       1.970236500850       2.032167301301       1.933255475625       0.416851560450       0.652697798574       0.649193104138
99 1       2.215371548365       1.723991387102       1.750105312198       0.586860348274      -0.750550231317      -0.537799754402
100 1       1.450917990184       0.295296701605       2.331330130731      -0.209788496257      -0.597016000319      -0.369644702338
101 1       2.189814138781       2.339687937520       2.029582742214      -0.352294943670       0.311556672009      -0.535802083771
102 1       1.303781795241       0.648256651798       0.527020889616      -0.273832367137       0.261324269900       0.100529218595
103 1       1.017708755115       0.570417516559       1.008865382813      -0.012410679732      -0.189434208345      -0.200669229710
104 1       2.257169510947       2.542968678197       2.133328973823      -0.300903819158      -0.301577097228       0.102405013593
105 1       1.466295297297       0.632659673334       1.129608475299       0.181275697260       0.011900128003       0.302439947057
106 1       1.952438585444       2.525196018724       2.153579367164       0.398174105476      -0.107185981544      -0.387638457902
107 1       1.772118189301       1.651600080513       0.627252995019      -0.373781901584       0.156225638705      -0.489327634685
108 1       0.474666663794       1.551741990192       2.107677011272       0.080076553883       0.000602191255      -0.559500026744
109 1       2.276592499942       1.782217768375       2.751460162898      -0.030895414586      -0.407922555783       0.338714839272
110 1       2.104402596795       1.957542565732       2.492261115058      -0.379284525741      -0.088787244733       0.060825597561
111 1       1.463441277336       1.854247673695       0.654678216143       0.349213633071       0.117035152248       0.460982009633
112 1       0.348123091104       1.889799298011       1.778338749610       0.038889581865       0.050366893925       0.433752326205
113 1       1.504382702569       0.935268099446       1.081126339187       0.044449258948       0.193197078893      -0.425316157828
114 1       1.545262338708       1.647690748510       0.137055966183       0.196089807900       0.307268768346      -0.228047301570
115 1       2.157081716862       2.015186138335       2.684713914882      -0.157761255042       0.636633885611      -0.292111581700
116 1       2.186338409210       2.109222805022       1.658115976730      -0.529983875708       0.374532357597      -0.388621199995
117 1       1.936990607943       2.010978538403       2.081617964992       0.594867747756      -0.400294664180      -0.595077221888
118 1       2.273850506515       2.351612472974       1.868730348991       0.147002086826      -0.183200259613      -0.472375451960
119 1       1.434140002769       0.171891750756       2.191024102627       0.205041405944       0.615563637278      -0.430967875253
120 1       1.776091982745       1.053894120914       1.024994665638      -0.175195086210       0.283518671447      -0.484711553863
121 1       2.255000094959       2.238210879273       1.843281087508       0.507114531195       0.431650717675       0.406093457982
122 1       2.361404552531       1.811147181461       2.764629542902       0.032440157284       0.709652046394       0.374969219139
123 1       0.561630395498       1.912063367477       1.359760175888      -0.103371873324       0.073141926406       0.194208197781
124 1       0.511256926103       1.966698038055       2.226916442849       0.052969281199       0.234607339830       0.330470335783
125 1       1.739981974545       2.133602161717       1.782845624071      -0.616133334053      -0.738173336261       0.643490791265
126 1       1.720946862362      -0.053913003904       1.904557095298       0.156120544444      -0.394642171337       0.230599183362
127 1       2.170382429503       2.188204658524       2.756451796489       0.369614598750       0.329342717511       0.253886911912
128 1       2.279758798930       2.228119396096       1.950719176523       0.524102481998       0.427229143244       0.172905747842
129 1       1.580742184552      -0.291293073469       1.796090787653      -0.164680185229       0.472447300569       0.171937698684
130 1       1.858356865523       2.194734313687       2.626198848790       0.171823138424       0.227527481045       0.623858418747
131 1       0.771349127679       1.868199960383       0.920031612573       0.164823514804      -0.564012768511      -0.186569518479
132 1       2.397283523715       2.250527467185       2.242659955617       0.368318041911      -0.112993659540      -0.050506435491
133 1       2.201070099071       2.393658693829       2.398096012558      -0.584753168574       0.607915018004      -0.257181818087
134 1       1.829678231995       2.199042165284       2.169695800394      -0.639494748777       0.570730533373      -0.907821626498
135 1       1.907878224743       2.095028895056       2.438675791222      -0.247610520665      -0.420032643026       0.451332866652
136 1       1.769489154882       1.052285179149       0.779790143748      -0.208116783755       0.168999625760       0.544221526930
137 1       0.295728765225       1.764954626911       1.774411841649       0.127568924187       0.062319403786      -0.178083021493
138 1       2.203991897862       2.316895701406       2.138600265553       0.297111973671      -0.381688352048      -0.318598704832
139 1       2.351662394679       2.155886593005       2.295838321075      -0.397135812660       0.324872463434      -0.050049682925
140 1       1.890831236550       0.477921443977       1.760742456983      -0.169465277251       0.343585588741      -0.192172314129
141 1       1.529126118516       1.536127837425       0.004553230276      -0.408418762208      -0.336404292183      -0.277147589310
142 1       1.744858020845       2.118513931466       1.444129388391      -0.473630079325      -0.284641471918       0.609959173273
143 1       1.937792921735       0.502567632854       1.357454209895       0.186782080551       0.228053806973       0.107119250909
144 1       2.166333207450       2.113676552173       2.372516436681       0.316990957062       0.555012508330       0.586816130304
145 1       0.568535226097       1.906853587840       2.414448872181      -0.085207950631       0.192137675593      -0.259347179289
146 1       0.349519262513       1.281281076938       1.140326163470       0.047898106319       0.274428994317      -0.050970648872
147 1       2.376182375538       2.409109216234       2.417332175361      -0.458573424715       0.372039789851      -0.246335879872
148 1       0.544668160538       1.694594005565       1.672225024199      -0.082094041863       0.300801362487      -0.094409108079
149 1      -0.129420656548       1.727855309512       1.645271468891      -0.200631870390      -0.127585948062      -0.389683661790
150 1       2.020839761823       2.103791163138       2.725164008366       0.181813689036      -0.515094518567      -0.200492111766
151 1       2.721664263449       2.325864399231       2.096236449487      -0.246233456086       0.155198987177      -0.116820125165
152 1       2.194705829226       2.323511381438       1.925917585340      -0.523847894336       0.586689745918      -0.505623225031
153 1       2.011016420358       1.953554531397       2.477033833128       0.407253221120       0.278277998393       0.284558402225
154 1       1.831812781627       1.091924481875       0.761106865561       0.250301004355       0.284941846300       0.470536127118
155 1       1.591876152052       1.531999706487      -0.029715870663      -0.284252977063      -0.045192885767       0.135738011034
156 1       1.788983719802       2.082604703304       1.714080445114      -0.444083712744      -0.306678905469       0.658362608332
157 1       2.286956877251       2.121614746901       2.322573388534      -0.164396305318      -0.302073877704       0.499017899852
158 1       1.043239365223       1.786392958001       0.677352562029      -0.217466976073      -0.428822530944       0.153878651702
159 1       1.472114544862       0.750325627048       0.560818636288       0.148793491499       0.111021942243       0.024273376419
160 1       1.912953954128       0.484953043606       2.135643369664      -0.049319474132       0.280241568551       0.107077760740
