ITEM: TIMESTEP
0
ITEM: NUMBER OF ATOMS
40
ITEM: BOX BOUNDS pp pp pp
0.0000000000000000e+00 8.7141098820000007e+00
0.0000000000000000e+00 5.0744997359999999e+00
0.0000000000000000e+00 9.3243536260000006e+00
ITEM: ATOMS id type x y z fx fy fz
1 2       1.369100000000       1.567790000000       8.275410000000      -0.095958678788       0.181223630188      -0.029883500841
2 2       3.095930000000       4.105030000000       8.275410000000       0.095964346933       0.181353478242      -0.029879792674
3 2       5.733790000000       0.901220000000       7.446730000000       0.117288952999      -0.117121908818      -0.036933262561
4 2       7.445350000000       3.438470000000       7.446730000000      -0.117432675315      -0.117096525480      -0.036917705768
5 2       4.687310000000       3.436250000000       5.559830000000      -0.132992843400      -0.007555550071       0.010754574288
6 2       1.463570000000       3.485540000000       5.684460000000      -0.128225359635       0.030127027406      -0.268273998137
7 2       3.001450000000       0.948290000000       5.684460000000       0.128306027465       0.030092375661      -0.268285653342
8 2       8.491830000000       0.899000000000       5.559830000000       0.132963449572      -0.007584816152       0.010790221006
9 2       1.376910000000       1.635850000000       2.784620000000       0.114900039458       0.116529950751      -0.037250748112
10 2       3.088120000000       4.173100000000       2.784620000000      -0.114916899188       0.116506935957      -0.037229899210
11 2       5.725630000000       0.969910000000       3.613180000000      -0.096650925114      -0.181702004937      -0.031258153858
12 2       7.453510000000       3.507160000000       3.613180000000       0.096655241373      -0.181720241560      -0.031286994256
13 2       4.135400000000       1.638550000000       0.897970000000       0.132233034858       0.007245792549       0.009691348836
14 2       5.820430000000       4.126140000000       1.021860000000      -0.125413662554      -0.028165908978      -0.263260707876
15 2       7.358710000000       1.588890000000       1.021860000000       0.125459833512      -0.028150794062      -0.263260270278
16 2       0.329630000000       4.175810000000       0.897970000000      -0.132237062278       0.007093326149       0.009700953543
17 1       7.278190000000       1.768770000000       4.401570000000       0.048099158401      -0.062800233224      -0.064703352662
18 1       0.030430000000       0.768500000000       0.028210000000      -0.015770035136       0.065172986763       0.136647034130
19 1       7.313270000000       0.102490000000       6.890460000000       0.120739883276      -0.036547922697       0.017356210702
20 1       7.245820000000       4.942120000000       2.124080000000       0.015281728045       0.230685124048       0.072055163911
21 1       5.900950000000       4.306020000000       4.401570000000      -0.048089244578      -0.062792400560      -0.064722856116
22 1       7.382720000000       3.321130000000       9.310420000000       0.024370945146       0.027951177642       0.074606073578
23 1       5.865860000000       2.639740000000       6.890460000000      -0.120645520743      -0.036506678507       0.017403451239
24 1       5.933330000000       2.404870000000       2.124080000000      -0.015373961085       0.230693027066       0.072066568600
25 1       1.439000000000       1.753290000000       4.648330000000      -0.023176597837      -0.028318807106       0.075494941883
26 1       2.921640000000       0.768990000000       9.064080000000       0.047884830439       0.061297077803      -0.066573007521
27 1       1.577170000000       0.131770000000       6.786840000000      -0.020116668453      -0.228966274917       0.073114067471
28 1       1.508710000000       4.971720000000       2.228500000000      -0.121794989670       0.037681323175       0.016894971210
29 1       0.077820000000       4.306420000000       4.690540000000       0.018211071780      -0.068364662208       0.138021030827
30 1       1.543390000000       3.306240000000       9.064080000000      -0.047942570425       0.061348285236      -0.066503562661
31 1       0.158720000000       2.418920000000       6.841320000000      -0.033275791679       0.047222273104       0.087928012861
32 1       8.663230000000       2.655160000000       2.179370000000       0.032608209172      -0.045538808327       0.085418932489
33 1       4.387210000000       1.769170000000       4.690540000000      -0.018262254931      -0.068363857535       0.138057792340
34 1       5.796420000000       0.783880000000       9.310420000000      -0.024364988903       0.027941993636       0.074622778152
35 1       4.306300000000       4.956170000000       6.841320000000       0.033315620785       0.047252401224       0.087950185343
36 1       4.515910000000       0.117910000000       2.179370000000      -0.032564834698      -0.045544399129       0.085429360802
37 1       3.026030000000       4.290540000000       4.648330000000       0.023131234218      -0.028325076174       0.075513579669
38 1       4.434600000000       3.305750000000       0.028210000000       0.015772151199       0.065074869446       0.136701168985
39 1       2.887840000000       2.669020000000       6.786840000000       0.020192173980      -0.228994351361       0.073126717742
40 1       2.956320000000       2.434470000000       2.228500000000       0.121827631797       0.037668165757       0.016878326265
