ITEM: TIMESTEP
0
ITEM: NUMBER OF ATOMS
40
ITEM: BOX BOUNDS pp pp pp
0.0000000000000000e+00 8.8373397189999991e+00
0.0000000000000000e+00 5.1462603380000003e+00
0.0000000000000000e+00 9.4562131730000001e+00
ITEM: ATOMS id type v_vir_xx v_vir_yy v_vir_zz v_vir_xy v_vir_xz v_vir_yz
1 2      -1.238983433934      -1.639806216683      -1.833649833370       0.651727980786       1.029019130370      -1.067154768369
2 2      -1.239006492280      -1.639877400549      -1.833636812760      -0.651714844940      -1.029049489465      -1.067137586849
3 2      -2.905169427919      -3.426918020521      -2.747108475284      -0.502156098491      -0.342407859762       0.694652729139
4 2      -2.905139038115      -3.426900625363      -2.747204202303       0.502222216627       0.342483271488       0.694634351606
5 2      -1.787884380431      -1.728980398222      -1.505346152632      -0.343841636960       0.714834070128      -0.104005074020
6 2      -1.915833402037      -2.308219806350      -3.526464214388       0.415911916877      -0.593912503413      -1.222432241025
7 2      -1.915864067839      -2.308144434289      -3.526517704049      -0.415912055463       0.593931405795      -1.222445878165
8 2      -1.787848619741      -1.728901834098      -1.505252231486       0.343802878307      -0.714803704490      -0.104035294674
9 2      -2.905767053279      -3.425463842955      -2.742545037511       0.500899054488      -0.342310354727      -0.696300364583
10 2      -2.905818262298      -3.425495854599      -2.742549309446      -0.500897434092       0.342281908588      -0.696291397463
11 2      -1.247096772332      -1.646522674524      -1.840749525262      -0.655419626276       1.031647606427       1.062358762956
12 2      -1.247151828532      -1.646480066936      -1.840795108356       0.655446957787      -1.031660578489       1.062362181731
13 2      -1.779977587146      -1.728480199782      -1.504472005882      -0.344996841403      -0.714014130327       0.102647198767
14 2      -1.907525418115      -2.311970389666      -3.528915205753      -0.416294449325      -0.594302703973       1.220761415408
15 2      -1.907549045880      -2.312051335908      -3.528907897038       0.416317216605       0.594370096681       1.220778778727
16 2      -1.780001466602      -1.728477881806      -1.504444367095       0.344994196302       0.714031634174       0.102646255630
17 1       0.802566072911       1.406807250409       0.977565206663       0.374340262785       0.878260166709      -0.803248017355
18 1       0.425723095202       0.966118766588       1.237992984950      -0.381930165522      -0.953598043758      -0.463267702561
19 1       1.582490375763       1.165204140878       1.111464533248      -0.403463688384      -0.504676313604      -0.775837989532
20 1       2.459096660057       2.678591039590       2.993873183150      -0.252228929186      -0.644069821570      -0.951637057162
21 1       0.802551040725       1.406822782364       0.977555201515      -0.374366547168      -0.878223296938      -0.803224246063
22 1       2.201081111748       1.999709659723       2.198584671117      -0.089221656888      -0.131937106704      -0.355265487752
23 1       1.582553675629       1.165178275656       1.111472700653       0.403533011242       0.504704609219      -0.775813937748
24 1       2.459126858982       2.678623131499       2.993926064173       0.252233199297       0.644015835955      -0.951646617025
25 1       2.204379302128       1.999166334682       2.198920190219      -0.090285651948       0.131488947018       0.355462360892
26 1       0.801239488234       1.400091499150       0.975277320934      -0.371319590648       0.879681638203       0.802886184542
27 1       2.454922422643       2.676947891001       2.991340054564      -0.251073255822       0.645438591460       0.952136308674
28 1       1.580819531502       1.161032841581       1.108972517151      -0.402342031017       0.504678472387       0.773651454455
29 1       0.426783217362       0.972811120354       1.239681237291      -0.385407602510       0.952158523806       0.463132139358
30 1       0.801218814522       1.400102915800       0.975278606826       0.371305694025      -0.879682095340       0.802903717844
31 1       1.664200992567       2.551462448732       2.346147153482      -0.012966016146       0.179952547679      -0.009026800552
32 1       1.664523109086       2.553175896066       2.346402440139      -0.014891495779      -0.177986793696       0.009514786957
33 1       0.426844883501       0.972827938732       1.239740853850       0.385416949094      -0.952187257722       0.463119929652
34 1       2.201085350335       1.999706457152       2.198661847779       0.089224672091       0.131949901266      -0.355270478643
35 1       1.664251968535       2.551510105350       2.346162438110       0.012987030523      -0.179937224719      -0.009014129237
36 1       1.664468304940       2.553172208733       2.346428474903       0.014839077777       0.177977814134       0.009551025173
37 1       2.204394113422       1.999175881253       2.198922613057       0.090252079586      -0.131510838302       0.355446581425
38 1       0.425732209089       0.966097366995       1.237973434089       0.381973367659       0.953593817340      -0.463246758523
39 1       2.454898639211       2.676967234290       2.991363581037       0.251069770678      -0.645409750746       0.952146939519
40 1       1.580861872505       1.161016642466       1.108995539648       0.402343968364      -0.504658777181       0.773633093540
