ITEM: TIMESTEP
0
ITEM: NUMBER OF ATOMS
40
ITEM: BOX BOUNDS pp pp pp
0.0000000000000000e+00 8.8725482440000008e+00
0.0000000000000000e+00 5.1667633669999997e+00
0.0000000000000000e+00 9.4938873289999997e+00
ITEM: ATOMS id type x y z fx fy fz
1 2       1.388260000000       1.601960000000       8.435180000000      -0.065682162840       0.011443245268      -0.016207583133
2 2       3.157950000000       4.185330000000       8.435180000000       0.065689640489       0.011593705194      -0.016210803096
3 2       5.847610000000       0.909300000000       7.584250000000       0.082269400913      -0.164726806234       0.007354121493
4 2       7.571140000000       3.492680000000       7.584250000000      -0.082315446818      -0.164654948207       0.007368686607
5 2       4.781200000000       3.500120000000       5.660780000000      -0.103022699600       0.045853571850       0.140545187499
6 2       1.489960000000       3.546830000000       5.786260000000      -0.093286311031       0.076971868178      -0.155506781663
7 2       3.056250000000       0.963450000000       5.786260000000       0.093264273024       0.076957110226      -0.155509348302
8 2       8.637560000000       0.916730000000       5.660790000000       0.102943260461       0.045972329812       0.140431506660
9 2       1.411200000000       1.673630000000       2.837440000000       0.081883622048       0.165820223372       0.008419748702
10 2       3.135020000000       4.257010000000       2.837440000000      -0.081894687388       0.165808938757       0.008424213937
11 2       5.823880000000       0.982500000000       3.688110000000      -0.066388511223      -0.016477340206      -0.014099576671
12 2       7.594880000000       3.565880000000       3.688110000000       0.066328814585      -0.016485183282      -0.014074441182
13 2       4.202090000000       1.667040000000       0.914300000000       0.100873502223      -0.045723922205       0.135764167091
14 2       5.926140000000       4.203310000000       1.038980000000      -0.095064907267      -0.075919806061      -0.155762095766
15 2       7.492620000000       1.619930000000       1.038980000000       0.095044370418      -0.075957055345      -0.155773634708
16 2       0.344120000000       4.250420000000       0.914310000000      -0.100816172767      -0.045614516410       0.135672022888
17 1       7.408110000000       1.794550000000       4.469380000000      -0.013552953138      -0.088485089009      -0.092282116672
18 1       0.043590000000       0.786020000000       0.056060000000       0.033526956258       0.072913911018       0.154796030839
19 1       7.436230000000       0.087040000000       7.015150000000       0.078667377499       0.080923523492      -0.166513240733
20 1       7.358970000000       5.010240000000       2.143510000000      -0.019891284009       0.108776096310       0.017061146571
21 1       6.010640000000       4.377930000000       4.469380000000       0.013730543083      -0.088422774928      -0.092402995760
22 1       7.524270000000       3.377130000000       9.474470000000       0.083011449870       0.020641678190       0.134570346621
23 1       5.982520000000       2.670420000000       7.015150000000      -0.078682776220       0.080965402434      -0.166499583579
24 1       6.059790000000       2.426850000000       2.143520000000       0.019906590143       0.108912348026       0.016908166773
25 1       1.457740000000       1.789330000000       4.727750000000      -0.083501404128      -0.021043980305       0.134653288170
26 1       2.972460000000       0.789540000000       9.216600000000      -0.012556472390       0.089860349039      -0.091086038763
27 1       1.624740000000       0.155390000000       6.891340000000       0.017503485318      -0.106084832044       0.016562213868
28 1       1.546440000000       5.079370000000       2.268440000000      -0.081576008506      -0.082382423093      -0.166836741646
29 1       0.066800000000       4.381250000000       4.803210000000      -0.033526876014      -0.073627237437       0.153431682030
30 1       1.573750000000       3.372920000000       9.216600000000       0.012505270215       0.089946084604      -0.090991775686
31 1       0.148940000000       2.458470000000       6.965440000000       0.077547712390      -0.073698240387      -0.021104359257
32 1       8.833220000000       2.707880000000       2.218850000000      -0.076625660131       0.074536202259      -0.023622610248
33 1       4.479410000000       1.797870000000       4.803210000000       0.033472872931      -0.073629158828       0.153474723053
34 1       5.894490000000       0.793740000000       9.474470000000      -0.083059268654       0.020738238448       0.134539013755
35 1       4.397260000000       5.041840000000       6.965440000000      -0.077457598928      -0.073562854383      -0.021060554340
36 1       4.585540000000       0.124500000000       2.218850000000       0.076662463440       0.074507657463      -0.023646936123
37 1       3.088470000000       4.372710000000       4.727750000000       0.083515489957      -0.021060307742       0.134659349466
38 1       4.502620000000       3.369400000000       0.056060000000      -0.033453670995       0.072930952129       0.154812604184
39 1       2.921460000000       2.738770000000       6.891350000000      -0.017486347053      -0.106132648728       0.016497404037
40 1       2.999780000000       2.495990000000       2.268430000000       0.081494123834      -0.082384311237      -0.166754406914
