ITEM: TIMESTEP
0
ITEM: NUMBER OF ATOMS
40
ITEM: BOX BOUNDS pp pp pp
0.0000000000000000e+00 8.8725482440000008e+00
0.0000000000000000e+00 5.1667633669999997e+00
0.0000000000000000e+00 9.4938873289999997e+00
ITEM: ATOMS id type v_vir_xx v_vir_yy v_vir_zz v_vir_xy v_vir_xz v_vir_yz
1 2      -1.057806550182      -1.398940361185      -1.664388829278       0.636641524246       1.006494389813      -1.013708360218
2 2      -1.057839186956      -1.398993774863      -1.664389681797      -0.636661187483      -1.006498537382      -1.013643533951
3 2      -2.674609653252      -3.182631445580      -2.526193283097      -0.473612773507      -0.319297972032       0.692319635364
4 2      -2.674629213834      -3.182605115023      -2.526156126502       0.473613343852       0.319357777564       0.692323788897
5 2      -1.535643454673      -1.379006265396      -1.235710179826      -0.355828116337       0.685468515195      -0.111904794898
6 2      -1.704001009981      -2.042491193087      -3.396628217268       0.427363431363      -0.572133195402      -1.186305972914
7 2      -1.703995274287      -2.042519244415      -3.396633761387      -0.427341967256       0.572113031515      -1.186305592247
8 2      -1.535546958519      -1.378943771905      -1.235603652921       0.355757992365      -0.685422156758      -0.111967931844
9 2      -2.675521619854      -3.182084822125      -2.522479686371       0.471949828777      -0.319538331417      -0.693789009352
10 2      -2.675601815845      -3.182101311964      -2.522508491867      -0.471961889548       0.319513716530      -0.693777613876
11 2      -1.066709647750      -1.406829106954      -1.671728144618      -0.639217220008       1.008467256249       1.008545749116
12 2      -1.066677257144      -1.406766575152      -1.671763085701       0.639230159048      -1.008509899374       1.008540493119
13 2      -1.526910725084      -1.379056238567      -1.233561033116      -0.356073160392      -0.684337623597       0.109247693739
14 2      -1.697676444166      -2.047463414429      -3.401215350375      -0.426887886410      -0.573595465402       1.185485775048
15 2      -1.697679563421      -2.047460497617      -3.401182943812       0.426903537150       0.573561187384       1.185510702413
16 2      -1.526865256296      -1.378989267167      -1.233473699907       0.356045929402       0.684366689880       0.109216450732
17 1       0.856032524015       1.509229966297       1.065040469675       0.394023160599       0.917260995607      -0.818433185276
18 1       0.548589507590       1.019986538698       1.268172863797      -0.390926584273      -0.975947022885      -0.473723843688
19 1       1.665392064816       1.213404102933       1.248209814710      -0.424669123646      -0.536068306291      -0.811298806779
20 1       2.505532064295       2.695053493851       3.080594897775      -0.204439060071      -0.607997705679      -0.950529108198
21 1       0.856029397777       1.509205162707       1.065010787465      -0.394077596086      -0.917218400520      -0.818369756514
22 1       2.218803826223       2.032256306855       2.232660554201      -0.094044548990      -0.129771036091      -0.342012656071
23 1       1.665411575937       1.213416480783       1.248267487551       0.424685909130       0.536077930551      -0.811307211529
24 1       2.505500324443       2.695046542986       3.080584152665       0.204462541752       0.608004421593      -0.950522427660
25 1       2.222727408563       2.031846327225       2.231792637429      -0.094787378981       0.129237042540       0.342774140186
26 1       0.854919859554       1.500585182276       1.061992776941      -0.392296744624       0.919204213597       0.817879234870
27 1       2.500980924730       2.692935033168       3.078487556282      -0.203348174229       0.608912058919       0.953044590521
28 1       1.664373568927       1.208622912731       1.245155507252      -0.424107344519       0.536132640808       0.808845147402
29 1       0.550991093225       1.024650099871       1.270011595710      -0.393750452285       0.975524246117       0.473547673311
30 1       0.854916093899       1.500506632137       1.062048141978       0.392266199249      -0.919237974895       0.817888207216
31 1       1.736686251373       2.585191678836       2.407588646223      -0.031087139944       0.168539345655      -0.034637684546
32 1       1.738043132453       2.587933239762       2.407640666399      -0.032551140743      -0.167524359752       0.034954886091
33 1       0.550983580994       1.024678703261       1.269988276639       0.393748700619      -0.975510501138       0.473553646245
34 1       2.218790570737       2.032272678696       2.232654454003       0.094085862422       0.129770226991      -0.342019061506
35 1       1.736739838990       2.585261013146       2.407608160357       0.031122946924      -0.168525543323      -0.034639949243
36 1       1.738006898816       2.587955877640       2.407664489907       0.032526643073       0.167519904677       0.034956342060
37 1       2.222713424154       2.031873429958       2.231791049638       0.094796987702      -0.129239048468       0.342785439315
38 1       0.548608638738       1.019964572132       1.268155288039       0.390915393032       0.975935928730      -0.473698268245
39 1       2.500960325746       2.692916271465       3.078481994381       0.203337945080      -0.608935533460       0.953039394520
40 1       1.664409590643       1.208609016459       1.245168458543       0.424125829886      -0.536146232915       0.808829911384
