ITEM: TIMESTEP
0
ITEM: NUMBER OF ATOMS
20
ITEM: BOX BOUNDS xy xz yz pp pp pp
-1.4097261383580000e+00 1.2634893372084999e+01 0.0000000000000000e+00
0.0000000000000000e+00 3.1289210260000000e+00 -1.4097261383580000e+00
0.0000000000000000e+00 5.7926239146559997e+00 0.0000000000000000e+00
ITEM: ATOMS id type v_vir_xx v_vir_yy v_vir_zz v_vir_xy v_vir_xz v_vir_yz
1 2      -0.360780782376       0.112583054226      -2.464585998063      -0.000000593472       0.681043793063      -0.000000712015
2 2      -0.360775782786       0.112576447978      -2.464461749589      -0.000000593483       0.681040240030      -0.000000711919
3 2      -2.021737670567      -2.210828706265      -0.072643207928       0.000002854188       0.067255088267       0.000001114173
4 2      -2.021788226001      -2.210895227444      -0.072692218435       0.000002854576       0.067258580975       0.000001114144
5 2      -0.360739738470       0.112606141025      -2.464457791406       0.000000593455       0.680995988873       0.000000711868
6 2      -0.360750829119       0.112597418760      -2.464459201786       0.000000593398       0.681004114541       0.000000711832
7 2      -2.021781467810      -2.210879620815      -0.072647441920      -0.000002854475       0.067267347048      -0.000001114043
8 2      -2.021752800516      -2.210808427444      -0.072663558882      -0.000002854230       0.067278429757      -0.000001114149
9 1       1.798150147742       0.806701602547      -0.108824089571       0.000004522739       0.466305220618       0.000001368859
10 1       1.798218282462       0.806790732329      -0.108789810094       0.000004522455       0.466312189742       0.000001368375
11 1       1.758448465187       1.539234874574       3.014315943491       0.000001467863      -0.375863513966      -0.000000063861
12 1       1.758386599817       1.539173550441       3.014256024564       0.000001468053      -0.375820650631      -0.000000063855
13 1       0.900630294310       1.953668110783       1.830123393542       0.000000763809      -0.713076702041      -0.000001274849
14 1       0.900629364773       1.953665565114       1.830152148077       0.000000763696      -0.713097683840      -0.000001275086
15 1       1.798187186771       0.806771685368      -0.108806005421      -0.000004522577       0.466312849446      -0.000001368394
16 1       1.798151770641       0.806701414073      -0.108808117265      -0.000004522842       0.466320285907      -0.000001368542
17 1       1.758382663519       1.539181147218       3.014239327921      -0.000001468027      -0.375802440610       0.000000063850
18 1       1.758376420527       1.539203056077       3.014246107190      -0.000001467929      -0.375825255200       0.000000063781
19 1       0.900605140468       1.953650435330       1.830110988924      -0.000000763536      -0.713082971681       0.000001275086
20 1       0.900615476122       1.953658131913       1.830155934455      -0.000000763810      -0.713072304849       0.000001275139
