ITEM: TIMESTEP
0
ITEM: NUMBER OF ATOMS
20
ITEM: BOX BOUNDS xy xz yz pp pp pp
-1.4097261383580000e+00 1.2634893372084999e+01 0.0000000000000000e+00
0.0000000000000000e+00 3.1289210260000000e+00 -1.4097261383580000e+00
0.0000000000000000e+00 5.7926239146559997e+00 0.0000000000000000e+00
ITEM: ATOMS id type c_pe_atom
1 2      -6.948896534335
2 2      -6.948931810802
3 2      -9.956263660469
4 2      -9.956209288487
5 2      -6.948933317714
6 2      -6.948961343387
7 2      -9.956211173193
8 2      -9.956219340964
9 1      -3.265129744239
10 1      -3.265064486766
11 1      -6.428314846798
12 1      -6.428383874566
13 1      -3.205070204191
14 1      -3.205054640635
15 1      -3.265127732985
16 1      -3.265111523117
17 1      -6.428353441193
18 1      -6.428282229377
19 1      -3.205045925635
20 1      -3.205107435843
