20
Config_type=bulk_beta_phase Weight=1.0 Lattice="12.276571145 0.000000000 -2.987696679 0.000000000 3.128921026 0.000000000 0.000000000 0.000000000 5.961696034" Energy=-170.51030140 Virial="-8.18189 -0.00000 -0.25511 -0.00000 -9.08842 0.00000 -0.25511 0.00000 -8.71795" pbc="T T T" Properties=species:S:1:pos:R:3:forces:R:3
Ga	      1.93882      1.56446      1.40125        -0.013748      0.000003      0.019938
Ga	      4.19946      0.00000      3.06660         0.013884     -0.000004     -0.020000
Ga	      1.09768      0.00000      4.47140        -0.032515     -0.000007     -0.006068
Ga	      5.04061      1.56446     -0.00355         0.032456      0.000010      0.006041
Ga	      8.07711      0.00000     -0.09260        -0.013859     -0.000003      0.019977
Ga	     10.33775      1.56446      1.57275         0.013730      0.000003     -0.019961
Ga	      7.23596      1.56446      2.97755        -0.032427      0.000008     -0.005993
Ga	     11.17889      0.00000     -1.49740         0.032542     -0.000007      0.006029
O	      6.07857      0.00000      0.05401        -0.015507     -0.000010      0.014423
O	      0.05971      1.56446      4.41384         0.015668      0.000010     -0.014454
O	      2.14085      0.00000      2.85691         0.010717     -0.000004      0.007664
O	      3.99744      1.56446      1.61093        -0.010824      0.000003     -0.007499
O	      4.17207      1.56446      4.29142         0.004847      0.000003     -0.008309
O	      1.96622      0.00000      0.17643        -0.004911     -0.000006      0.008226
O	     12.21686      1.56446     -1.43984        -0.015649      0.000009      0.014443
O	      6.19800      0.00000      2.91999         0.015521     -0.000008     -0.014425
O	      8.27913      1.56446      1.36307         0.010841      0.000003      0.007498
O	     10.13572      0.00000      0.11708        -0.010738     -0.000001     -0.007503
O	     10.31035      0.00000      2.79757         0.004910     -0.000006     -0.008277
O	      8.10451      1.56446     -1.31742        -0.004936      0.000003      0.008251
