ITEM: TIMESTEP
0
ITEM: NUMBER OF ATOMS
80
ITEM: BOX BOUNDS pp pp pp
0.0000000000000000e+00 9.2415475530000002e+00
0.0000000000000000e+00 9.2415475530000002e+00
0.0000000000000000e+00 9.2415475530000002e+00
ITEM: ATOMS id type v_vir_xx v_vir_yy v_vir_zz v_vir_xy v_vir_xz v_vir_yz
1 2      -7.316624489053      -7.316712447565      -7.316671413678      -1.447712737954       1.447737128690       1.447748996408
2 2      -6.426870678194      -6.683040024295      -6.645828051701       0.000020950425       0.467584791003       0.000035840617
3 2      -6.645902304992      -6.426839782069      -6.683112188759       0.467537377570      -0.000006976714      -0.000001652584
4 2      -6.645898648318      -6.426952693058      -6.683067811465      -0.467564088142       0.000016616473      -0.000006854291
5 2      -6.683112188759      -6.645902304992      -6.426839782069      -0.000006976714      -0.000001652584       0.467537377570
6 2      -6.683155869596      -6.645761573267      -6.426893145232      -0.000045485243       0.000026140576      -0.467558676901
7 2      -6.426952693058      -6.683067811465      -6.645898648318      -0.000006854291      -0.467564088142       0.000016616473
8 2      -7.316671413678      -7.316624489053      -7.316712447565       1.447737128690       1.447748996408      -1.447712737954
9 2      -7.316701861733      -7.316701861733      -7.316701861733      -1.447736312872      -1.447736312872      -1.447736312872
10 2      -7.316712447565      -7.316671413678      -7.316624489053       1.447748996408      -1.447712737954       1.447737128690
11 2      -6.426893145232      -6.683155869596      -6.645761573267       0.000026140576      -0.467558676901      -0.000045485243
12 2      -6.683067811465      -6.645898648318      -6.426952693058       0.000016616473      -0.000006854291      -0.467564088142
13 2      -6.683040024295      -6.645828051701      -6.426870678194       0.000035840617       0.000020950425       0.467584791003
14 2      -6.645761573267      -6.426893145232      -6.683155869596      -0.467558676901      -0.000045485243       0.000026140576
15 2      -6.645828051701      -6.426870678194      -6.683040024295       0.467584791003       0.000035840617       0.000020950425
16 2      -6.426839782069      -6.683112188759      -6.645902304992      -0.000001652584       0.467537377570      -0.000006976714
17 2      -7.316681992438      -7.316594027389      -7.316635071897      -1.447749809987       1.447725423648       1.447713553437
18 2      -6.426913273163      -6.683083777942      -6.645874648336      -0.000003005022       0.467588416260      -0.000025990038
19 2      -6.645746073445      -6.426891596207      -6.682939653064       0.467624103525      -0.000002869882      -0.000016294890
20 2      -6.645804054554      -6.426831266878      -6.683055991214      -0.467609128695       0.000012503356      -0.000021504816
21 2      -6.682939653064      -6.645746073445      -6.426891596207      -0.000002869882      -0.000016294890       0.467624103525
22 2      -6.682895961045      -6.645886797602      -6.426838226362       0.000016351943       0.000002205243      -0.467602808825
23 2      -6.426831266878      -6.683055991214      -6.645804054554      -0.000021504816      -0.467609128695       0.000012503356
24 2      -7.316635071897      -7.316681992438      -7.316594027389       1.447725423648       1.447713553437      -1.447749809987
25 2      -7.316604613272      -7.316604613272      -7.316604613272      -1.447726239662      -1.447726239662      -1.447726239662
26 2      -7.316594027389      -7.316635071897      -7.316681992438       1.447713553437      -1.447749809987       1.447725423648
27 2      -6.426838226362      -6.682895961045      -6.645886797602       0.000002205243      -0.467602808825       0.000016351943
28 2      -6.683055991214      -6.645804054554      -6.426831266878       0.000012503356      -0.000021504816      -0.467609128695
29 2      -6.683083777942      -6.645874648336      -6.426913273163      -0.000025990038      -0.000003005022       0.467588416260
30 2      -6.645886797602      -6.426838226362      -6.682895961045      -0.467602808825       0.000016351943       0.000002205243
31 2      -6.645874648336      -6.426913273163      -6.683083777942       0.467588416260      -0.000025990038      -0.000003005022
32 2      -6.426891596207      -6.682939653064      -6.645746073445      -0.000016294890       0.467624103525      -0.000002869882
33 1       3.449302530445       3.634610829451       3.056285216443      -0.493818558298       0.770714909627       0.066784841334
34 1       3.449276448939       3.634606657089       3.056289235436       0.493787450459      -0.770688476758       0.066798455818
35 1       3.634592213218       3.056279379809       3.449316096644      -0.066764542777      -0.493838864154      -0.770707627511
36 1       3.634623955208       3.056310126696       3.449321540887       0.066796525302      -0.493779353639       0.770662169044
37 1       3.634620542189       3.056292552864       3.449302315371      -0.066779978238       0.493810839645       0.770699765091
38 1       3.634625036002       3.056296424522       3.449336735306       0.066786053293       0.493792360441      -0.770680294275
39 1       3.449316096644       3.634592213218       3.056279379809      -0.493838864154      -0.770707627511      -0.066764542777
40 1       3.449302315371       3.634620542189       3.056292552864       0.493810839645       0.770699765091      -0.066779978238
41 1       3.056296424522       3.449336735306       3.634625036002      -0.770680294275       0.066786053293       0.493792360441
42 1       3.056314687390       3.449361264137       3.634606874283       0.770727689368      -0.066774137038       0.493807432969
43 1       3.056279379809       3.449316096644       3.634592213218      -0.770707627511      -0.066764542777      -0.493838864154
44 1       3.056285216443       3.449302530445       3.634610829451       0.770714909627       0.066784841334      -0.493818558298
45 1       3.056337534642       3.449358354047       3.634638274009      -0.770728146664      -0.066786406300      -0.493797510955
46 1       3.056292552864       3.449302315371       3.634620542189       0.770699765091      -0.066779978238       0.493810839645
47 1       3.056289235436       3.449276448940       3.634606657089      -0.770688476758       0.066798455818       0.493787450459
48 1       3.056310126696       3.449321540887       3.634623955208       0.770662169044       0.066796525302      -0.493779353639
49 1       3.449361264137       3.634606874283       3.056314687390       0.493807432969       0.770727689368      -0.066774137038
50 1       3.449358354047       3.634638274009       3.056337534642      -0.493797510955      -0.770728146664      -0.066786406300
51 1       3.634606874283       3.056314687390       3.449361264137      -0.066774137038       0.493807432969       0.770727689368
52 1       3.634606657089       3.056289235436       3.449276448940       0.066798455818       0.493787450459      -0.770688476758
53 1       3.634610829451       3.056285216443       3.449302530445       0.066784841334      -0.493818558298       0.770714909627
54 1       3.634638274009       3.056337534642       3.449358354047      -0.066786406300      -0.493797510955      -0.770728146664
55 1       3.449321540887       3.634623955208       3.056310126696      -0.493779353639       0.770662169044       0.066796525302
56 1       3.449336735306       3.634625036002       3.056296424522       0.493792360441      -0.770680294275       0.066786053293
57 1       3.449355732482       3.634631476593       3.056340746850      -0.493797320440       0.770714978126       0.066791672772
58 1       3.449364563969       3.634619018863       3.056307621530       0.493812637449      -0.770730342677       0.066791193680
59 1       3.634617665759       3.056339337982       3.449339812693      -0.066814418753      -0.493768871137      -0.770690304082
60 1       3.634601813044       3.056288614362       3.449329414597       0.066797402897      -0.493815675754       0.770743269022
61 1       3.634637716706       3.056315345042       3.449360934603      -0.066815766708       0.493787273091       0.770724243522
62 1       3.634617342862       3.056331435340       3.449331472140       0.066794713324       0.493818461026      -0.770736211436
63 1       3.449339812693       3.634617665759       3.056339337982      -0.493768871137      -0.770690304082      -0.066814418753
64 1       3.449360934603       3.634637716706       3.056315345042       0.493787273091       0.770724243522      -0.066815766708
65 1       3.056331435340       3.449331472140       3.634617342862      -0.770736211436       0.066794713324       0.493818461026
66 1       3.056302129972       3.449284709763       3.634602929165       0.770683624443      -0.066800563522       0.493805359135
67 1       3.056339337982       3.449339812693       3.634617665759      -0.770690304082      -0.066814418753      -0.493768871137
68 1       3.056340746850       3.449355732482       3.634631476593       0.770714978126       0.066791672772      -0.493797320440
69 1       3.056268456758       3.449294935169       3.634619876598      -0.770709259588      -0.066805045909      -0.493805648060
70 1       3.056315345042       3.449360934603       3.634637716706       0.770724243522      -0.066815766708       0.493787273091
71 1       3.056307621530       3.449364563969       3.634619018863      -0.770730342677       0.066791193680       0.493812637449
72 1       3.056288614362       3.449329414597       3.634601813044       0.770743269022       0.066797402897      -0.493815675754
73 1       3.449284709763       3.634602929165       3.056302129972       0.493805359135       0.770683624443      -0.066800563522
74 1       3.449294935169       3.634619876598       3.056268456758      -0.493805648060      -0.770709259588      -0.066805045909
75 1       3.634602929165       3.056302129972       3.449284709763      -0.066800563522       0.493805359135       0.770683624443
76 1       3.634619018863       3.056307621530       3.449364563969       0.066791193680       0.493812637449      -0.770730342677
77 1       3.634631476593       3.056340746850       3.449355732482       0.066791672772      -0.493797320440       0.770714978126
78 1       3.634619876598       3.056268456758       3.449294935169      -0.066805045909      -0.493805648060      -0.770709259588
79 1       3.449329414597       3.634601813044       3.056288614362      -0.493815675754       0.770743269022       0.066797402897
80 1       3.449331472140       3.634617342862       3.056331435340       0.493818461026      -0.770736211436       0.066794713324
