ITEM: TIMESTEP
0
ITEM: NUMBER OF ATOMS
80
ITEM: BOX BOUNDS pp pp pp
0.0000000000000000e+00 9.4862321109999996e+00
0.0000000000000000e+00 9.4862321109999996e+00
0.0000000000000000e+00 9.4862321109999996e+00
ITEM: ATOMS id type c_pe_atom
1 2      -5.378173706564
2 2      -5.241067567734
3 2      -5.241078213481
4 2      -5.241070239819
5 2      -5.241078213481
6 2      -5.241073295808
7 2      -5.241070239819
8 2      -5.378173706564
9 2      -5.378172232130
10 2      -5.378173706564
11 2      -5.241073295808
12 2      -5.241070239819
13 2      -5.241067567734
14 2      -5.241073295808
15 2      -5.241067567734
16 2      -5.241078213481
17 2      -5.378175180791
18 2      -5.241080426236
19 2      -5.241068900806
20 2      -5.241077753917
21 2      -5.241068900806
22 2      -5.241073818899
23 2      -5.241077753917
24 2      -5.378175180790
25 2      -5.378176655190
26 2      -5.378175180790
27 2      -5.241073818899
28 2      -5.241077753917
29 2      -5.241080426236
30 2      -5.241073818899
31 2      -5.241080426236
32 2      -5.241068900806
33 1     -10.640845593431
34 1     -10.640839280862
35 1     -10.640829782268
36 1     -10.640840265519
37 1     -10.640832810889
38 1     -10.640843288805
39 1     -10.640829782268
40 1     -10.640832810889
41 1     -10.640843288805
42 1     -10.640838430823
43 1     -10.640829782268
44 1     -10.640845593431
45 1     -10.640844748924
46 1     -10.640832810889
47 1     -10.640839280862
48 1     -10.640840265519
49 1     -10.640838430823
50 1     -10.640844748924
51 1     -10.640838430823
52 1     -10.640839280862
53 1     -10.640845593431
54 1     -10.640844748924
55 1     -10.640840265519
56 1     -10.640843288805
57 1     -10.640843964093
58 1     -10.640831369296
59 1     -10.640854890558
60 1     -10.640834841274
61 1     -10.640851636922
62 1     -10.640850725363
63 1     -10.640854890558
64 1     -10.640851636922
65 1     -10.640850725363
66 1     -10.640841785361
67 1     -10.640854890558
68 1     -10.640843964093
69 1     -10.640835242351
70 1     -10.640851636922
71 1     -10.640831369296
72 1     -10.640834841274
73 1     -10.640841785361
74 1     -10.640835242351
75 1     -10.640841785361
76 1     -10.640831369296
77 1     -10.640843964093
78 1     -10.640835242351
79 1     -10.640834841274
80 1     -10.640850725363
