ITEM: TIMESTEP
0
ITEM: NUMBER OF ATOMS
40
ITEM: BOX BOUNDS pp pp pp
0.0000000000000000e+00 8.7141098820000007e+00
0.0000000000000000e+00 5.0744997359999999e+00
0.0000000000000000e+00 9.3243536260000006e+00
ITEM: ATOMS id type c_pe_atom
1 2      -4.605345540462
2 2      -4.605338702465
3 2      -4.177166864080
4 2      -4.177166827371
5 2      -4.745743813958
6 2      -4.544511331534
7 2      -4.544518365530
8 2      -4.745748472598
9 2      -4.176921643106
10 2      -4.176924089638
11 2      -4.604404400909
12 2      -4.604405238299
13 2      -4.746687443863
14 2      -4.544556954795
15 2      -4.544555014854
16 2      -4.746688520876
17 1     -11.330220446567
18 1     -11.312465080269
19 1     -11.245985602613
20 1     -10.695621036054
21 1     -11.330220170052
22 1     -11.224015034881
23 1     -11.245985197891
24 1     -10.695622236830
25 1     -11.223751581579
26 1     -11.329863284546
27 1     -10.695358682221
28 1     -11.246045601813
29 1     -11.312723380180
30 1     -11.329867427331
31 1     -11.164315137384
32 1     -11.164182078543
33 1     -11.312713399253
34 1     -11.224014569401
35 1     -11.164312534182
36 1     -11.164187319141
37 1     -11.223746734766
38 1     -11.312461742564
39 1     -10.695364076034
40 1     -11.246040385349
