80
Config_type=bulk_delta_phase Weight=1.0 Lattice="9.599163446 0.000000000 0.000000000 0.000000000 9.599163446 0.000000000 0.000000000 0.000000000 9.599163446" Energy=-678.79070760 Virial="-50.80205 0.00001 0.00005 0.00001 -50.80201 0.00009 0.00005 0.00009 -50.80199" pbc="T T T" Properties=species:S:1:pos:R:3:forces:R:3
Ga	      7.19937      2.39979      2.39979         0.000035      0.000007      0.000029
Ga	      7.19937      4.44196      4.79958         0.000026      0.002903      0.000008
Ga	      0.00000      7.19937      0.35762        -0.000021      0.000035     -0.002906
Ga	      0.00000      2.39979      4.44196        -0.000041      0.000021      0.002893
Ga	      0.35762      0.00000      7.19937        -0.002910     -0.000028      0.000029
Ga	      0.35762      4.79958      2.39979        -0.002903     -0.000007      0.000017
Ga	      2.39979      4.44196      0.00000         0.000028      0.002905     -0.000042
Ga	      2.39979      7.19937      2.39979         0.000027      0.000039      0.000016
Ga	      2.39979      2.39979      2.39979         0.000004      0.000014      0.000002
Ga	      2.39979      2.39979      7.19937         0.000013      0.000030      0.000045
Ga	      2.39979      0.35762      4.79958         0.000012     -0.002918     -0.000009
Ga	      4.44196      0.00000      2.39979         0.002906     -0.000034      0.000024
Ga	      4.44196      4.79958      7.19937         0.002901      0.000004      0.000030
Ga	      4.79958      2.39979      0.35762        -0.000014      0.000021     -0.002922
Ga	      4.79958      7.19937      4.44196         0.000006      0.000027      0.002906
Ga	      7.19937      0.35762      0.00000         0.000032     -0.002910     -0.000022
Ga	      2.39979      7.19937      7.19937         0.000017      0.000020      0.000024
Ga	      2.39979      9.24154      0.00000         0.000011      0.002921     -0.000019
Ga	      4.79958      2.39979      5.15720         0.000024      0.000023     -0.002878
Ga	      4.79958      7.19937      9.24154         0.000001      0.000025      0.002918
Ga	      5.15720      4.79958      2.39979        -0.002871      0.000015      0.000032
Ga	      5.15720      0.00000      7.19937        -0.002861     -0.000033      0.000039
Ga	      7.19937      9.24154      4.79958         0.000027      0.002918     -0.000006
Ga	      7.19937      2.39979      7.19937         0.000027      0.000008      0.000013
Ga	      7.19937      7.19937      7.19937         0.000028      0.000024      0.000025
Ga	      7.19937      7.19937      2.39979         0.000010      0.000030      0.000017
Ga	      7.19937      5.15720      0.00000         0.000032     -0.002867     -0.000034
Ga	      9.24154      4.79958      7.19937         0.002915      0.000002      0.000025
Ga	      9.24154      0.00000      2.39979         0.002908     -0.000021      0.000014
Ga	      0.00000      7.19937      5.15720        -0.000031      0.000036     -0.002872
Ga	      0.00000      2.39979      9.24154        -0.000014      0.000013      0.002915
Ga	      2.39979      5.15720      4.79958         0.000030     -0.002874      0.000015
O	      8.52456      5.89361      1.52816         0.008293      0.001547      0.003084
O	      8.52456      3.70555      3.27143         0.008299     -0.001541     -0.003204
O	      8.50513      1.52816      1.07460        -0.001526      0.003122     -0.008229
O	      8.50513      3.27143      5.87418        -0.001513     -0.003222     -0.008221
O	      1.09403      3.27143      1.07460         0.001531     -0.003227     -0.008214
O	      1.09403      1.52816      5.87418         0.001547      0.003127     -0.008216
O	      1.07460      8.50513      1.52816        -0.008245     -0.001546      0.003107
O	      1.07460      1.09403      3.27143        -0.008226      0.001543     -0.003218
O	      1.52816      5.87418      1.09403         0.003102     -0.008195      0.001549
O	      1.52816      3.72498      3.70555         0.003087      0.008244     -0.001556
O	      1.52816      1.07460      8.50513         0.003129     -0.008223     -0.001527
O	      1.52816      8.52456      5.89361         0.003119      0.008275      0.001548
O	      3.27143      3.72498      5.89361        -0.003221      0.008231      0.001542
O	      3.27143      1.07460      1.09403        -0.003233     -0.008218      0.001537
O	      3.27143      8.52456      3.70555        -0.003217      0.008287     -0.001534
O	      3.27143      5.87418      8.50513        -0.003235     -0.008195     -0.001522
O	      3.72498      3.70555      1.52816         0.008247     -0.001549      0.003109
O	      3.72498      5.89361      3.27143         0.008244      0.001537     -0.003223
O	      3.70555      1.52816      3.72498        -0.001556      0.003099      0.008248
O	      3.70555      3.27143      8.52456        -0.001546     -0.003222      0.008284
O	      5.89361      1.52816      8.52456         0.001539      0.003093      0.008260
O	      5.89361      3.27143      3.72498         0.001544     -0.003213      0.008242
O	      5.87418      8.50513      3.27143        -0.008210     -0.001515     -0.003228
O	      5.87418      1.09403      1.52816        -0.008203      0.001544      0.003128
O	      3.72498      1.09403      6.32774         0.008249      0.001527      0.003128
O	      3.72498      8.50513      8.07101         0.008267     -0.001518     -0.003210
O	      3.70555      6.32774      5.87418        -0.001561      0.003134     -0.008205
O	      3.70555      8.07101      1.07460        -0.001534     -0.003211     -0.008233
O	      5.89361      8.07101      5.87418         0.001546     -0.003188     -0.008197
O	      5.89361      6.32774      1.07460         0.001546      0.003119     -0.008234
O	      5.87418      3.70555      6.32774        -0.008199     -0.001557      0.003116
O	      5.87418      5.89361      8.07101        -0.008192      0.001549     -0.003189
O	      6.32774      1.07460      5.89361         0.003122     -0.008240      0.001550
O	      6.32774      8.52456      8.50513         0.003100      0.008292     -0.001537
O	      6.32774      5.87418      3.70555         0.003122     -0.008214     -0.001551
O	      6.32774      3.72498      1.09403         0.003121      0.008254      0.001538
O	      8.07101      8.52456      1.09403        -0.003186      0.008263      0.001528
O	      8.07101      5.87418      5.89361        -0.003205     -0.008219      0.001554
O	      8.07101      3.72498      8.50513        -0.003198      0.008275     -0.001522
O	      8.07101      1.07460      3.70555        -0.003207     -0.008229     -0.001525
O	      8.52456      8.50513      6.32774         0.008277     -0.001527      0.003113
O	      8.52456      1.09403      8.07101         0.008275      0.001542     -0.003198
O	      8.50513      6.32774      8.52456        -0.001517      0.003109      0.008305
O	      8.50513      8.07101      3.72498        -0.001540     -0.003189      0.008257
O	      1.09403      6.32774      3.72498         0.001547      0.003110      0.008226
O	      1.09403      8.07101      8.52456         0.001528     -0.003219      0.008289
O	      1.07460      3.70555      8.07101        -0.008237     -0.001540     -0.003214
O	      1.07460      5.89361      6.32774        -0.008225      0.001544      0.003145
