ITEM: TIMESTEP
0
ITEM: NUMBER OF ATOMS
20
ITEM: BOX BOUNDS xy xz yz pp pp pp
-1.3930429887389999e+00 1.2485368007372999e+01 0.0000000000000000e+00
0.0000000000000000e+00 3.0918923750000000e+00 -1.3930429887389999e+00
0.0000000000000000e+00 5.7240721521460003e+00 0.0000000000000000e+00
ITEM: ATOMS id type c_pe_atom
1 2      -5.910013360262
2 2      -5.910064324984
3 2      -9.136406186319
4 2      -9.136355866358
5 2      -5.909989049770
6 2      -5.910089075758
7 2      -9.136381661939
8 2      -9.136372936164
9 1      -3.818597320404
10 1      -3.818455424072
11 1      -7.181964411643
12 1      -7.182037770793
13 1      -3.800678943861
14 1      -3.800828259851
15 1      -3.818639514746
16 1      -3.818605170122
17 1      -7.181997245314
18 1      -7.182002961430
19 1      -3.800682298650
20 1      -3.800814902608
