20
Config_type=bulk_beta_phase Weight=1.0 Lattice="12.131286280 0.000000000 -2.952339322 0.000000000 3.091892375 0.000000000 0.000000000 0.000000000 5.891143418" Energy=-170.66719340 Virial="-1.32613 0.00002 -0.04918 0.00002 -1.45563 -0.00014 -0.04918 -0.00014 -1.28866" pbc="T T T" Properties=species:S:1:pos:R:3:forces:R:3
Ga	      1.92196      1.54595      1.38184         0.006036     -0.000048     -0.000503
Ga	      4.14368      0.00000      3.03314        -0.005874      0.000027      0.000287
Ga	      1.09086      0.00000      4.41631        -0.008389      0.000053      0.011843
Ga	      4.97478      1.54595     -0.00134         0.008637     -0.000075     -0.011727
Ga	      7.98760      0.00000     -0.09433         0.006049      0.000026     -0.000471
Ga	     10.20933      1.54595      1.55697        -0.006068     -0.000048      0.000262
Ga	      7.15651      1.54595      2.94014        -0.008630     -0.000073      0.011810
Ga	     11.04042      0.00000     -1.47751         0.008644      0.000051     -0.011715
O	      6.01597      0.00000      0.04742        -0.011155      0.000067     -0.003683
O	      0.04968      1.54595      4.36755         0.011043     -0.000079      0.003617
O	      2.10633      0.00000      2.81164         0.013247      0.000015     -0.004242
O	      3.95932      1.54595      1.60333        -0.013356     -0.000026      0.004317
O	      4.08161      1.54595      4.25534         0.020247      0.000113     -0.002249
O	      1.98404      0.00000      0.15964        -0.020427      0.000033      0.002214
O	     12.08161      1.54595     -1.42875        -0.011112     -0.000079     -0.003682
O	      6.11532      0.00000      2.89138         0.011116      0.000066      0.003625
O	      8.17197      1.54595      1.33547         0.013375     -0.000027     -0.004302
O	     10.02496      0.00000      0.12716        -0.013285      0.000014      0.004336
O	     10.14725      0.00000      2.77917         0.020247      0.000033     -0.002009
O	      8.04968      1.54595     -1.31653        -0.020345     -0.000044      0.002274
