ITEM: TIMESTEP
0
ITEM: NUMBER OF ATOMS
80
ITEM: BOX BOUNDS pp pp pp
0.0000000000000000e+00 8.8021311939999993e+00
0.0000000000000000e+00 1.0251514617000000e+01
0.0000000000000000e+00 9.4185390170000005e+00
ITEM: ATOMS id type c_pe_atom
1 2      -4.779802643448
2 2      -4.779792768943
3 2      -4.391252936433
4 2      -4.391245271549
5 2      -4.897834599308
6 2      -4.730274629590
7 2      -4.730275681178
8 2      -4.897834679047
9 2      -4.391427241412
10 2      -4.391423603285
11 2      -4.778356099678
12 2      -4.778350644785
13 2      -4.899015594543
14 2      -4.729991355200
15 2      -4.729986399550
16 2      -4.899019487220
17 2      -4.779809001121
18 2      -4.779790120006
19 2      -4.391246654364
20 2      -4.391247000296
21 2      -4.897830775165
22 2      -4.730275684934
23 2      -4.730275101369
24 2      -4.897832496778
25 2      -4.391428806273
26 2      -4.391429324366
27 2      -4.778348108619
28 2      -4.778355421370
29 2      -4.899017256046
30 2      -4.729990362563
31 2      -4.729990494283
32 2      -4.899024025737
33 1     -11.205424223972
34 1     -11.200636402486
35 1     -11.133588444360
36 1     -10.592117844817
37 1     -11.205421761548
38 1     -11.111781721448
39 1     -11.133582757199
40 1     -10.592127098331
41 1     -11.111331702420
42 1     -11.205543523186
43 1     -10.591555696348
44 1     -11.133541780395
45 1     -11.201488469864
46 1     -11.205521098560
47 1     -11.067783758715
48 1     -11.067654524499
49 1     -11.201488640891
50 1     -11.111782386446
51 1     -11.067784646536
52 1     -11.067662404191
53 1     -11.111323751349
54 1     -11.200647165213
55 1     -10.591528967418
56 1     -11.133546374928
57 1     -11.205436262097
58 1     -11.200631409855
59 1     -11.133583099582
60 1     -10.592120750917
61 1     -11.205427822147
62 1     -11.111783277872
63 1     -11.133581832851
64 1     -10.592128954738
65 1     -11.111330344600
66 1     -11.205534923862
67 1     -10.591547188367
68 1     -11.133544820568
69 1     -11.201487240181
70 1     -11.205522748931
71 1     -11.067784927183
72 1     -11.067654257269
73 1     -11.201485360809
74 1     -11.111778771793
75 1     -11.067780078300
76 1     -11.067658759831
77 1     -11.111326368209
78 1     -11.200648105191
79 1     -10.591526696140
80 1     -11.133544558564
