ITEM: TIMESTEP
0
ITEM: NUMBER OF ATOMS
80
ITEM: BOX BOUNDS pp pp pp
0.0000000000000000e+00 8.6260885710000004e+00
0.0000000000000000e+00 1.0046484325000000e+01
0.0000000000000000e+00 9.2301682360000008e+00
ITEM: ATOMS id type c_pe_atom
1 2      -4.419774263888
2 2      -4.419769827750
3 2      -3.939548696640
4 2      -3.939547371259
5 2      -4.573717039015
6 2      -4.349556145261
7 2      -4.349558913255
8 2      -4.573726435606
9 2      -3.939470824833
10 2      -3.939472256986
11 2      -4.419324963571
12 2      -4.419345401270
13 2      -4.574306479530
14 2      -4.349541277236
15 2      -4.349539362581
16 2      -4.574305731090
17 2      -4.419770836197
18 2      -4.419773164400
19 2      -3.939546046829
20 2      -3.939549552539
21 2      -4.573716980820
22 2      -4.349554934922
23 2      -4.349554965756
24 2      -4.573725724099
25 2      -3.939464698434
26 2      -3.939476731712
27 2      -4.419324315862
28 2      -4.419338564276
29 2      -4.574302937473
30 2      -4.349542748067
31 2      -4.349538625606
32 2      -4.574307544406
33 1     -11.443193338372
34 1     -11.414840343434
35 1     -11.353519495847
36 1     -10.795598937692
37 1     -11.443195883100
38 1     -11.333765429115
39 1     -11.353525566234
40 1     -10.795581824887
41 1     -11.333753348484
42 1     -11.443056691486
43 1     -10.794990519121
44 1     -11.353571593406
45 1     -11.415126668204
46 1     -11.443049097821
47 1     -11.257091256768
48 1     -11.257176874649
49 1     -11.415123704278
50 1     -11.333765316039
51 1     -11.257096384497
52 1     -11.257172334058
53 1     -11.333756127672
54 1     -11.414838023569
55 1     -10.794978140398
56 1     -11.353578298836
57 1     -11.443192073688
58 1     -11.414842068233
59 1     -11.353521565267
60 1     -10.795591906832
61 1     -11.443195133601
62 1     -11.333770843796
63 1     -11.353522242461
64 1     -10.795585850933
65 1     -11.333756442098
66 1     -11.443061355158
67 1     -10.794992092778
68 1     -11.353573641157
69 1     -11.415120602275
70 1     -11.443050562420
71 1     -11.257091987599
72 1     -11.257179062283
73 1     -11.415116237635
74 1     -11.333766669725
75 1     -11.257092311442
76 1     -11.257173890997
77 1     -11.333760418594
78 1     -11.414840131156
79 1     -10.794986453763
80 1     -11.353579287086
