ITEM: TIMESTEP
0
ITEM: NUMBER OF ATOMS
80
ITEM: BOX BOUNDS pp pp pp
0.0000000000000000e+00 9.4674102219999998e+00
0.0000000000000000e+00 9.4674102219999998e+00
0.0000000000000000e+00 9.4674102219999998e+00
ITEM: ATOMS id type c_pe_atom
1 2      -6.463028603243
2 2      -6.212639990662
3 2      -6.212604391686
4 2      -6.212650185046
5 2      -6.212604391686
6 2      -6.212612525059
7 2      -6.212650185046
8 2      -6.463028603243
9 2      -6.463036393904
10 2      -6.463028603243
11 2      -6.212612525059
12 2      -6.212650185046
13 2      -6.212639990662
14 2      -6.212612525059
15 2      -6.212639990662
16 2      -6.212604391686
17 2      -6.463020812501
18 2      -6.212613569083
19 2      -6.212648546087
20 2      -6.212603374385
21 2      -6.212648546087
22 2      -6.212640412775
23 2      -6.212603374385
24 2      -6.463020812501
25 2      -6.463013021476
26 2      -6.463020812501
27 2      -6.212640412775
28 2      -6.212603374385
29 2      -6.212613569083
30 2      -6.212640412775
31 2      -6.212613569083
32 2      -6.212648546087
33 1      -5.712065071980
34 1      -5.712133586100
35 1      -5.712047574146
36 1      -5.712150447435
37 1      -5.712093655923
38 1      -5.712117878532
39 1      -5.712047574146
40 1      -5.712093655923
41 1      -5.712117878532
42 1      -5.712165495476
43 1      -5.712047574146
44 1      -5.712065071980
45 1      -5.712175630993
46 1      -5.712093655923
47 1      -5.712133586100
48 1      -5.712150447435
49 1      -5.712165495476
50 1      -5.712175630993
51 1      -5.712165495476
52 1      -5.712133586100
53 1      -5.712065071980
54 1      -5.712175630993
55 1      -5.712150447435
56 1      -5.712117878532
57 1      -5.712152851054
58 1      -5.712118061368
59 1      -5.712184571953
60 1      -5.712092992086
61 1      -5.712127350078
62 1      -5.712091834947
63 1      -5.712184571953
64 1      -5.712127350078
65 1      -5.712091834947
66 1      -5.712074858678
67 1      -5.712184571953
68 1      -5.712152851054
69 1      -5.712053582259
70 1      -5.712127350078
71 1      -5.712118061368
72 1      -5.712092992086
73 1      -5.712074858678
74 1      -5.712053582259
75 1      -5.712074858678
76 1      -5.712118061368
77 1      -5.712152851054
78 1      -5.712053582259
79 1      -5.712092992086
80 1      -5.712091834947
