ITEM: TIMESTEP
0
ITEM: NUMBER OF ATOMS
80
ITEM: BOX BOUNDS pp pp pp
0.0000000000000000e+00 9.4297664440000002e+00
0.0000000000000000e+00 9.4297664440000002e+00
0.0000000000000000e+00 9.4297664440000002e+00
ITEM: ATOMS id type c_pe_atom
1 2      -5.303947131908
2 2      -5.180798001235
3 2      -5.180801638709
4 2      -5.180799683999
5 2      -5.180801638709
6 2      -5.180796359905
7 2      -5.180799683999
8 2      -5.303947131908
9 2      -5.303943919429
10 2      -5.303947131908
11 2      -5.180796359905
12 2      -5.180799683999
13 2      -5.180798001235
14 2      -5.180796359905
15 2      -5.180798001235
16 2      -5.180801638709
17 2      -5.303950344656
18 2      -5.180804145459
19 2      -5.180799049268
20 2      -5.180802462880
21 2      -5.180799049268
22 2      -5.180804328208
23 2      -5.180802462880
24 2      -5.303950344656
25 2      -5.303953557148
26 2      -5.303950344656
27 2      -5.180804328208
28 2      -5.180802462880
29 2      -5.180804145459
30 2      -5.180804328208
31 2      -5.180804145459
32 2      -5.180799049268
33 1     -10.688342751473
34 1     -10.688331074275
35 1     -10.688344239854
36 1     -10.688342261246
37 1     -10.688344335776
38 1     -10.688353884560
39 1     -10.688344239854
40 1     -10.688344335776
41 1     -10.688353884560
42 1     -10.688344694148
43 1     -10.688344239854
44 1     -10.688342751473
45 1     -10.688344843695
46 1     -10.688344335776
47 1     -10.688331074275
48 1     -10.688342261246
49 1     -10.688344694148
50 1     -10.688344843695
51 1     -10.688344694148
52 1     -10.688331074275
53 1     -10.688342751473
54 1     -10.688344843695
55 1     -10.688342261246
56 1     -10.688353884560
57 1     -10.688347298022
58 1     -10.688333686476
59 1     -10.688352369153
60 1     -10.688340832477
61 1     -10.688350530830
62 1     -10.688354497519
63 1     -10.688352369153
64 1     -10.688350530830
65 1     -10.688354497519
66 1     -10.688333582269
67 1     -10.688352369153
68 1     -10.688347298022
69 1     -10.688331690166
70 1     -10.688350530830
71 1     -10.688333686476
72 1     -10.688340832477
73 1     -10.688333582269
74 1     -10.688331690166
75 1     -10.688333582269
76 1     -10.688333686476
77 1     -10.688347298022
78 1     -10.688331690166
79 1     -10.688340832477
80 1     -10.688354497519
