ITEM: TIMESTEP
0
ITEM: NUMBER OF ATOMS
80
ITEM: BOX BOUNDS pp pp pp
0.0000000000000000e+00 9.4297664440000002e+00
0.0000000000000000e+00 9.4297664440000002e+00
0.0000000000000000e+00 9.4297664440000002e+00
ITEM: ATOMS id type x y z fx fy fz
1 2       7.072320000000       2.357440000000       2.357440000000       0.000036834449       0.000009735762       0.000012421111
2 2       7.072320000000       4.376130000000       4.714880000000       0.000087906249       0.105590332649       0.000025203642
3 2       0.000000000000       7.072320000000       0.338760000000       0.000000185070       0.000070307440      -0.105731330019
4 2       0.000000000000       2.357440000000       4.376130000000      -0.000041223184       0.000059059853       0.105611139288
5 2       0.338760000000       0.000000000000       7.072320000000      -0.105731330019       0.000000185070       0.000070307440
6 2       0.338760000000       4.714880000000       2.357440000000      -0.105731132287      -0.000016205184       0.000041461051
7 2       2.357440000000       4.376130000000       0.000000000000       0.000059059853       0.105611139288      -0.000041223184
8 2       2.357440000000       7.072320000000       2.357440000000       0.000012421111       0.000036834449       0.000009735762
9 2       2.357440000000       2.357440000000       2.357440000000       0.000017603682       0.000017603682       0.000017603682
10 2       2.357440000000       2.357440000000       7.072320000000       0.000009735762       0.000012421111       0.000036834449
11 2       2.357440000000       0.338760000000       4.714880000000       0.000041461051      -0.105731132287      -0.000016205184
12 2       4.376130000000       0.000000000000       2.357440000000       0.105611139288      -0.000041223184       0.000059059853
13 2       4.376130000000       4.714880000000       7.072320000000       0.105590332649       0.000025203642       0.000087906249
14 2       4.714880000000       2.357440000000       0.338760000000      -0.000016205184       0.000041461051      -0.105731132287
15 2       4.714880000000       7.072320000000       4.376130000000       0.000025203642       0.000087906249       0.105590332649
16 2       7.072320000000       0.338760000000       0.000000000000       0.000070307440      -0.105731330019       0.000000185070
17 2       2.357440000000       7.072320000000       7.072320000000       0.000010697464       0.000048068826       0.000041164555
18 2       2.357440000000       9.091010000000       0.000000000000       0.000030131250       0.105677489063       0.000008025465
19 2       4.714880000000       2.357440000000       5.053640000000       0.000033043172       0.000047730740      -0.105750234381
20 2       4.714880000000       7.072320000000       9.091010000000      -0.000008365031       0.000081637157       0.105656682609
21 2       5.053640000000       4.714880000000       2.357440000000      -0.105750234381       0.000033043172       0.000047730740
22 2       5.053640000000       0.000000000000       7.072320000000      -0.105750432852      -0.000033382329       0.000099236712
23 2       7.072320000000       9.091010000000       4.714880000000       0.000081637157       0.105656682609      -0.000008365031
24 2       7.072320000000       2.357440000000       7.072320000000       0.000041164555       0.000010697464       0.000048068826
25 2       7.072320000000       7.072320000000       7.072320000000       0.000034146964       0.000034146964       0.000034146964
26 2       7.072320000000       7.072320000000       2.357440000000       0.000048068826       0.000041164555       0.000010697464
27 2       7.072320000000       5.053640000000       0.000000000000       0.000099236712      -0.105750432852      -0.000033382329
28 2       9.091010000000       4.714880000000       7.072320000000       0.105656682609      -0.000008365031       0.000081637157
29 2       9.091010000000       0.000000000000       2.357440000000       0.105677489063       0.000008025465       0.000030131250
30 2       0.000000000000       7.072320000000       5.053640000000      -0.000033382329       0.000099236712      -0.105750432852
31 2       0.000000000000       2.357440000000       9.091010000000       0.000008025465       0.000030131250       0.105677489063
32 2       2.357440000000       5.053640000000       4.714880000000       0.000047730740      -0.105750234381       0.000033043172
33 1       8.348910000000       5.764450000000       1.490340000000      -0.027189326053      -0.036337891457       0.047341485032
34 1       8.348910000000       3.665320000000       3.224550000000      -0.027166980184       0.036324293988      -0.047390262806
35 1       8.380200000000       1.490340000000       1.080860000000       0.036325404512       0.047351242194       0.027188826645
36 1       8.380200000000       3.224550000000       5.795740000000       0.036314203937      -0.047400338059       0.027198959380
37 1       1.049570000000       3.224550000000       1.080860000000      -0.036388238730      -0.047440441255       0.027121141633
38 1       1.049570000000       1.490340000000       5.795740000000      -0.036342235746       0.047355589956       0.027226904182
39 1       1.080860000000       8.380200000000       1.490340000000       0.027188826645       0.036325404512       0.047351242194
40 1       1.080860000000       1.049570000000       3.224550000000       0.027121141633      -0.036388238730      -0.047440441255
41 1       1.490340000000       5.795740000000       1.049570000000       0.047355589956       0.027226904182      -0.036342235746
42 1       1.490340000000       3.634020000000       3.665320000000       0.047353470364      -0.027128771682       0.036324828214
43 1       1.490340000000       1.080860000000       8.380200000000       0.047351242194       0.027188826645       0.036325404512
44 1       1.490340000000       8.348910000000       5.764450000000       0.047341485032      -0.027189326053      -0.036337891457
45 1       3.224550000000       3.634020000000       5.764450000000      -0.047438643389      -0.027055490652      -0.036373224329
46 1       3.224550000000       1.080860000000       1.049570000000      -0.047440441255       0.027121141633      -0.036388238730
47 1       3.224550000000       8.348910000000       3.665320000000      -0.047390262806      -0.027166980184       0.036324293988
48 1       3.224550000000       5.795740000000       8.380200000000      -0.047400338059       0.027198959380       0.036314203937
49 1       3.634020000000       3.665320000000       1.490340000000      -0.027128771682       0.036324828214       0.047353470364
50 1       3.634020000000       5.764450000000       3.224550000000      -0.027055490652      -0.036373224329      -0.047438643389
51 1       3.665320000000       1.490340000000       3.634020000000       0.036324828214       0.047353470364      -0.027128771682
52 1       3.665320000000       3.224550000000       8.348910000000       0.036324293988      -0.047390262806      -0.027166980184
53 1       5.764450000000       1.490340000000       8.348910000000      -0.036337891457       0.047341485032      -0.027189326053
54 1       5.764450000000       3.224550000000       3.634020000000      -0.036373224329      -0.047438643389      -0.027055490652
55 1       5.795740000000       8.380200000000       3.224550000000       0.027198959380       0.036314203937      -0.047400338059
56 1       5.795740000000       1.049570000000       1.490340000000       0.027226904182      -0.036342235746       0.047355589956
57 1       3.634020000000       1.049570000000       6.205220000000      -0.027085397765      -0.036379095293       0.047381678748
58 1       3.634020000000       8.380200000000       7.939430000000      -0.027069082526       0.036359604361      -0.047413585056
59 1       3.665320000000       6.205220000000       5.795740000000       0.036264470323       0.047307664219       0.027261783711
60 1       3.665320000000       7.939430000000       1.080860000000       0.036319012797      -0.047379674145       0.027167652049
61 1       5.764450000000       7.939430000000       5.795740000000      -0.036321407429      -0.047379995001       0.027200132433
62 1       5.764450000000       6.205220000000       1.080860000000      -0.036324065340       0.047343742162       0.027178371303
63 1       5.795740000000       3.665320000000       6.205220000000       0.027261783711       0.036264470323       0.047307664219
64 1       5.795740000000       5.764450000000       7.939430000000       0.027200132433      -0.036321407429      -0.047379995001
65 1       6.205220000000       1.080860000000       5.764450000000       0.047343742162       0.027178371303      -0.036324065340
66 1       6.205220000000       8.348910000000       8.380200000000       0.047329269791      -0.027191289259       0.036315729951
67 1       6.205220000000       5.795740000000       3.665320000000       0.047307664219       0.027261783711       0.036264470323
68 1       6.205220000000       3.634020000000       1.049570000000       0.047381678748      -0.027085397765      -0.036379095293
69 1       7.939430000000       8.348910000000       1.049570000000      -0.047405626057      -0.027135232784      -0.036387105844
70 1       7.939430000000       5.795740000000       5.764450000000      -0.047379995001       0.027200132433      -0.036321407429
71 1       7.939430000000       3.634020000000       8.380200000000      -0.047413585056      -0.027069082526       0.036359604361
72 1       7.939430000000       1.080860000000       3.665320000000      -0.047379674145       0.027167652049       0.036319012797
73 1       8.348910000000       8.380200000000       6.205220000000      -0.027191289259       0.036315729951       0.047329269791
74 1       8.348910000000       1.049570000000       7.939430000000      -0.027135232784      -0.036387105844      -0.047405626057
75 1       8.380200000000       6.205220000000       8.348910000000       0.036315729951       0.047329269791      -0.027191289259
76 1       8.380200000000       7.939430000000       3.634020000000       0.036359604361      -0.047413585056      -0.027069082526
77 1       1.049570000000       6.205220000000       3.634020000000      -0.036379095293       0.047381678748      -0.027085397765
78 1       1.049570000000       7.939430000000       8.348910000000      -0.036387105844      -0.047405626057      -0.027135232784
79 1       1.080860000000       3.665320000000       7.939430000000       0.027167652049       0.036319012797      -0.047379674145
80 1       1.080860000000       5.764450000000       6.205220000000       0.027178371303      -0.036324065340       0.047343742162
