ITEM: TIMESTEP
0
ITEM: NUMBER OF ATOMS
20
ITEM: BOX BOUNDS xy xz yz pp pp pp
-1.3735793142799999e+00 1.2310921747694000e+01 0.0000000000000000e+00
0.0000000000000000e+00 3.0486922820000002e+00 -1.3735793142799999e+00
0.0000000000000000e+00 5.6440950962040004e+00 0.0000000000000000e+00
ITEM: ATOMS id type v_vir_xx v_vir_yy v_vir_zz v_vir_xy v_vir_xz v_vir_yz
1 2      -2.217178501524      -1.136602822721      -4.427442197653       0.000001147646       0.096042077301       0.000008083179
2 2      -2.217098251754      -1.136580937301      -4.427280418843       0.000001148992       0.096053115229       0.000008081357
3 2      -3.882700145955      -3.325110187816      -2.021586052916      -0.000028086605       0.040220149448      -0.000006461653
4 2      -3.882665435379      -3.325088160751      -2.021571596602      -0.000028084146       0.040246905619      -0.000006459527
5 2      -2.216989504031      -1.136556687733      -4.427266495664      -0.000001150128       0.096100885313      -0.000008081975
6 2      -2.217077191640      -1.136628845070      -4.427446979656      -0.000001145391       0.096072272348      -0.000008081155
7 2      -3.882583602320      -3.325093254602      -2.021584643269       0.000028083383       0.040128224892       0.000006464413
8 2      -3.882659782440      -3.325099719008      -2.021587886938       0.000028086472       0.040204072377       0.000006462304
9 1       1.468470176990       0.024158614164      -0.068963022121      -0.000036688801       0.465300026197      -0.000012000452
10 1       1.468438235246       0.024190103933      -0.068895381936      -0.000036694051       0.465292124525      -0.000012008043
11 1       1.812327724376       1.181671640553       2.787116293908      -0.000010228904      -0.095998285553      -0.000003714830
12 1       1.812269092756       1.181687038900       2.787066663563      -0.000010231920      -0.095965777028      -0.000003720143
13 1       0.638289430501       1.205262507310       1.684398583403      -0.000009703267      -0.494991591698       0.000008356024
14 1       0.638317161945       1.205261373953       1.684445048590      -0.000009701782      -0.494974933431       0.000008355680
15 1       1.468425944131       0.024194406267      -0.068888741749       0.000036694088       0.465311613429       0.000012008080
16 1       1.468467876226       0.024200941867      -0.068930338455       0.000036692020       0.465311359528       0.000012006702
17 1       1.812324644814       1.181660309182       2.787133249292       0.000010234636      -0.096043727558       0.000003721250
18 1       1.812291762476       1.181642828863       2.787142490990       0.000010226649      -0.096006316377       0.000003715358
19 1       0.638308937811       1.205259088748       1.684393807174       0.000009702221      -0.494980885418      -0.000008356986
20 1       0.638282173556       1.205288486836       1.684299065603       0.000009699482      -0.495015745885      -0.000008358504
