20
Config_type=bulk_beta_phase Weight=1.0 Lattice="11.961787270 0.000000000 -2.911089072 0.000000000 3.048692282 0.000000000 0.000000000 0.000000000 5.808832033" Energy=-170.50196440 Virial="7.61389 0.00000 0.23217 0.00000 8.39909 -0.00000 0.23217 -0.00000 8.47112" pbc="T T T" Properties=species:S:1:pos:R:3:forces:R:3
Ga	      1.90070      1.52435      1.35903         0.029829     -0.000047     -0.013372
Ga	      4.08019      0.00000      2.99426        -0.029769      0.000043      0.013336
Ga	      1.08364      0.00000      4.35479         0.005029      0.000067     -0.011530
Ga	      4.89725      1.52435     -0.00150        -0.004929     -0.000073      0.011456
Ga	      7.88160      0.00000     -0.09652         0.029701      0.000042     -0.013229
Ga	     10.06109      1.52435      1.53872        -0.029850     -0.000045      0.013201
Ga	      7.06453      1.52435      2.89925         0.004989     -0.000074     -0.011749
Ga	     10.87815      0.00000     -1.45705        -0.005014      0.000067      0.011607
O	      5.94074      0.00000      0.03754        -0.002107      0.000082     -0.016441
O	      0.04015      1.52435      4.31574         0.002156     -0.000079      0.016468
O	      2.06729      0.00000      2.76016        -0.005489      0.000027     -0.000298
O	      3.91360      1.52435      1.59312         0.005493     -0.000022      0.000430
O	      3.98023      1.52435      4.21062         0.002490     -0.000041      0.000154
O	      2.00066      0.00000      0.14267        -0.002491      0.000045     -0.000182
O	     11.92164      1.52435     -1.41800        -0.002265     -0.000076     -0.016477
O	      6.02104      0.00000      2.86020         0.002157      0.000081      0.016430
O	      8.04819      1.52435      1.30462        -0.005564     -0.000022     -0.000330
O	      9.89450      0.00000      0.13758         0.005498      0.000026      0.000243
O	      9.96113      0.00000      2.75507         0.002520      0.000044      0.000318
O	      7.98155      1.52435     -1.31288        -0.002382     -0.000042     -0.000035
