40
Config_type=bulk_kappa_phase Weight=1.0 Lattice="8.925361031 0.000000000 0.000000000 0.000000000 5.197517911 0.000000000 0.000000000 0.000000000 9.550398563" Energy=-340.19471580 Virial="-17.74373 0.00109 -0.00122 0.00109 -19.27582 0.01939 -0.00122 0.01939 -17.00870" pbc="T T T" Properties=species:S:1:pos:R:3:forces:R:3
Ga	      1.39455      1.61225      8.48924         0.000876      0.006853     -0.004327
Ga	      3.17872      4.21100      8.48924        -0.000456      0.007303     -0.003933
Ga	      5.88534      0.90953      7.63034         0.005254     -0.017345     -0.006074
Ga	      7.61329      3.50829      7.63035        -0.005514     -0.016870     -0.006452
Ga	      4.81186      3.52270      5.69476         0.007105     -0.007652     -0.006216
Ga	      1.49873      3.57004      5.82038         0.003904      0.010766     -0.004672
Ga	      3.07453      0.97129      5.82038        -0.004663      0.009989     -0.002310
Ga	      8.68677      0.92393      5.69476        -0.007651     -0.007550     -0.005493
Ga	      1.42256      1.68874      2.85528         0.005731      0.023567     -0.006366
Ga	      3.15071      4.28750      2.85528        -0.006947      0.022990     -0.007027
Ga	      5.85662      0.98717      3.71393        -0.001152     -0.006534     -0.003497
Ga	      7.64201      3.58593      3.71393         0.002369     -0.006374     -0.003485
Ga	      4.22470      1.67535      0.91984        -0.007585      0.006233     -0.004514
Ga	      5.96132      4.22627      1.04478         0.003780     -0.009953     -0.005388
Ga	      7.53732      1.62751      1.04478        -0.003037     -0.009688     -0.005209
Ga	      0.34857      4.27411      0.91984         0.007320      0.006584     -0.004119
O	      7.45182      1.80242      4.49044         0.013677     -0.005799     -0.003575
O	      0.04921      0.79115      0.06697         0.007902      0.000848      0.006570
O	      7.47647      0.07958      7.05673         0.003391     -0.006624      0.008906
O	      7.39608      5.03105      2.14857         0.014098     -0.013194      0.000710
O	      6.04681      4.40118      4.49044        -0.013578     -0.005278     -0.003461
O	      7.57233      3.39348      9.52879        -0.007957     -0.015301     -0.001944
O	      6.02215      2.67835      7.05673        -0.004257     -0.007161      0.008260
O	      6.10256      2.43229      2.14857        -0.013318     -0.013723      0.000840
O	      1.46327      1.80377      4.75385         0.008428      0.015350     -0.002105
O	      2.98968      0.79705      9.26598         0.012915      0.003234     -0.004382
O	      1.64122      0.16533      6.92467        -0.015637      0.014538      0.001244
O	      1.55932      5.11774      2.28173         0.000203      0.003772      0.010151
O	      0.06181      4.40684      4.84231        -0.009872     -0.000282      0.006831
O	      1.58359      3.39581      9.26598        -0.012378      0.002712     -0.004347
O	      0.14540      2.47016      7.00726         0.003399     -0.005210      0.008664
O	      8.89028      2.72703      2.23230        -0.002966      0.003108      0.007919
O	      4.51146      1.80808      4.84231         0.009525     -0.000622      0.007124
O	      5.92630      0.79472      9.52879         0.008237     -0.015157     -0.001512
O	      4.42786      5.06892      7.00726        -0.003239     -0.004550      0.008580
O	      4.60836      0.12827      2.23230         0.002906      0.003180      0.008290
O	      3.11001      4.40252      4.75386        -0.007914      0.015646     -0.002092
O	      4.52406      3.38990      0.06697        -0.007728      0.000208      0.006737
O	      2.93204      2.76409      6.92468         0.015850      0.014527      0.001232
O	      3.01396      2.51898      2.28173        -0.001023      0.003459      0.010439
