160
Config_type=bulk_gamma_phase Weight=1.0 Lattice="8.516251126 0.000000000 0.000000000 0.000000000 8.516251126 0.000000000 0.000000000 0.000000000 25.548753377" Energy=-1358.86163720 Virial="-79.06578 -0.05930 -19.69425 -0.05930 -80.04526 -2.48363 -19.69425 -2.48363 -77.74615" pbc="T T T" Properties=species:S:1:pos:R:3:forces:R:3
Ga	      1.23451      5.28770     22.47706         0.009909      0.006942      0.006205
Ga	      5.29331      0.85990     13.90412        -0.005455      0.003758     -0.023619
Ga	      7.28667      7.53278      7.51151         0.003037      0.000442      0.007307
Ga	      7.41433      7.25467     16.03518        -0.001432     -0.003562      0.008436
Ga	      5.31690      5.33123      0.99824         0.003690      0.003299     -0.013978
Ga	      3.08471      3.25574      7.32672        -0.002681      0.014009      0.003248
Ga	      0.97076      1.06307      1.09781         0.010913      0.003234     -0.015748
Ga	      5.26018      1.04017      5.33227         0.001998      0.000365     -0.003850
Ga	      3.23854      3.02228     15.93179        -0.017526      0.013954      0.007573
Ga	      5.47068      1.14065     22.28604        -0.001595     -0.007748      0.004601
Ga	      3.19943      7.38045     11.71058         0.002794     -0.017633      0.007464
Ga	      7.55243      3.25623     20.14963        -0.002692     -0.003469     -0.000774
Ga	      1.03810      5.18499     13.71338         0.003667      0.012021      0.000752
Ga	      7.45187      3.28206      3.25910        -0.005488      0.011593      0.013297
Ga	      5.18436      5.41553      9.53556        -0.008526      0.002908      0.005172
Ga	      7.48514      7.57414     24.50979         0.013849      0.020452      0.009765
Ga	      3.24715      7.57502     20.25847        -0.015440      0.006700      0.001442
Ga	      0.93327      1.09290      9.69221         0.010280      0.015110     -0.008357
Ga	      3.27879      7.55069      3.16274        -0.002889      0.008039     -0.003543
Ga	      1.20111      1.04426     18.12151         0.027616     -0.008055     -0.013819
Ga	      4.00844      0.18195      8.52752         0.009382     -0.010153     -0.010125
Ga	      6.23809      6.22517     12.75231        -0.024239     -0.035110      0.016656
Ga	      2.19507      2.15691     21.30708         0.003212     -0.030056     -0.008389
Ga	      6.52021      6.41529     21.27457         0.022397     -0.011503      0.008035
Ga	      2.00255      6.51973      8.42981        -0.001688      0.006349     -0.009150
Ga	      8.45757      2.10287      6.34613         0.004797      0.025058      0.000381
Ga	      2.02918      2.13625      4.29288         0.005371      0.012039     -0.015292
Ga	      0.06524      2.05149     14.88135         0.006382      0.000139     -0.004209
Ga	      0.15749      6.31678     19.11298        -0.007299      0.003705     -0.006283
Ga	      6.37672      0.05534      2.14074         0.019903     -0.018968     -0.014946
Ga	      6.19809      0.07150     10.70576         0.011083     -0.013176     -0.008413
Ga	      4.23200      2.23380     19.11435         0.008825      0.007116      0.002520
Ga	      6.52211      8.49645     19.17903         0.030738      0.018457     -0.005088
Ga	      6.46551      2.06967     17.00323        -0.017056     -0.013036      0.008506
Ga	      0.16447      2.09377     23.48042         0.007964      0.010974     -0.009201
Ga	      2.07840      8.30651     14.99312         0.010391     -0.002356     -0.000161
Ga	      4.07490      6.13802     14.90989         0.012283     -0.004729     -0.002392
Ga	      6.33576      4.27329      6.42672         0.015433     -0.008400      0.000834
Ga	      4.29013      6.48413     23.45947        -0.010293     -0.002365      0.000114
Ga	      0.09182      4.25504     17.02547        -0.002205     -0.000970      0.003170
Ga	      2.12528      4.31420      2.12828        -0.017694     -0.017333     -0.006929
Ga	      4.18672      4.38705     21.23407         0.009005      0.006281     -0.004603
Ga	      4.20652      8.32507     17.09309        -0.005722      0.011895     -0.007264
Ga	      6.43419      4.30837     23.34937         0.007468     -0.002145      0.004831
Ga	      8.45480      6.33472     10.61081         0.003656      0.004120     -0.000582
Ga	      8.50548      8.43266     12.80817         0.005298     -0.006609     -0.013419
Ga	      0.01292      4.35722      0.05171        -0.013617      0.014655     -0.003213
Ga	      6.31072      4.12879     14.86794        -0.000336     -0.000210      0.009932
Ga	      4.22834      4.25448      4.20819         0.025705      0.006640      0.012689
Ga	      2.15694      2.06886     12.70763        -0.021424      0.007050      0.001345
Ga	      2.12333      4.19316     10.66558        -0.003138     -0.001651     -0.015158
Ga	      0.03968      6.55563      2.23154        -0.000245      0.006400      0.000243
Ga	      0.20838      8.47513     21.39300         0.000324      0.008042      0.001066
Ga	      4.19152      2.05780      2.01997        -0.001154     -0.004151     -0.007741
Ga	      6.31113      2.07895     25.49958         0.014698      0.002393     -0.004990
Ga	      8.50897      4.19603      8.51383        -0.013063     -0.003010     -0.011045
Ga	      6.17710      2.19652      8.61530         0.006310      0.000619      0.007915
Ga	      4.09329      6.53417      6.33100        -0.006373      0.015601      0.014015
Ga	      6.44355      6.53838      4.31785         0.001148      0.006570     -0.005105
Ga	      2.21758      6.48876     25.52082         0.003247     -0.005863     -0.000886
Ga	      5.23710      3.16700     11.74880        -0.001724      0.010829      0.009911
Ga	      3.23210      1.07784     24.45972        -0.028969     -0.028938      0.023608
Ga	      3.20575      5.26289     18.08696        -0.020150      0.011239      0.017142
Ga	      1.00603      7.53531      5.32088        -0.016820      0.012144      0.002481
O	      2.15928      2.16929      2.14894        -0.001664     -0.003754      0.001817
O	      6.26469      6.33063      6.34828         0.009411     -0.004000     -0.014498
O	      4.35790      8.43372      6.54183         0.014374     -0.002659     -0.004865
O	      4.38345      0.13222      2.15867        -0.003365     -0.008359      0.002535
O	      8.38365      6.51966      4.17766         0.007011      0.000786      0.001314
O	      0.04251      2.25963      4.35326        -0.001808     -0.001140     -0.002359
O	      6.27935      4.22236      8.48848        -0.002617     -0.007045      0.004899
O	      1.90627      4.54155      0.26871         0.002150     -0.007792     -0.000988
O	      8.50102      4.43219      2.11968        -0.006827      0.001175     -0.007543
O	      8.21765      4.05784      6.65670         0.006418      0.008542      0.003054
O	      4.37094      2.09274      0.07153        -0.006153     -0.002210     -0.004098
O	      4.08363      6.47712      8.37909         0.001691     -0.006299      0.002472
O	      2.14325      0.07772      4.24525        -0.000310      0.005767      0.004227
O	      6.22889      8.45030      4.15565         0.003227     -0.005808      0.005423
O	      2.14863      6.54912      6.47706        -0.004547      0.013693     -0.010200
O	      6.32849      2.14760      2.06764        -0.008682     -0.006790     -0.009302
O	      4.26045      4.18660      2.13564        -0.000945     -0.013234     -0.003296
O	      4.29227      4.39987      6.26494        -0.004726     -0.005974     -0.001673
O	      8.32092      2.13599      8.51473        -0.007010      0.007127      0.003360
O	      0.03780      6.41169      0.07852         0.001962     -0.003482     -0.000601
O	      8.37754      0.06625      6.40887         0.000537      0.005877     -0.004443
O	      8.37386      8.48462      2.09818         0.002640      0.000626      0.005712
O	      4.30475      6.33122      4.31486         0.003676     -0.003091     -0.004507
O	      4.19373      2.20147      4.18640         0.002742     -0.008177      0.001709
O	      6.36142      2.19135      6.45044         0.007670      0.007759      0.002619
O	      2.08585      6.45186      2.10507         0.000528     -0.003064      0.004263
O	      2.33668      4.08532      3.98641        -0.007634     -0.005357     -0.002059
O	      6.26305      4.39429      4.34957         0.002452      0.000212     -0.004183
O	      6.51570      0.16498      0.11610        -0.005692      0.004365     -0.003158
O	      2.09367      8.46602      8.71274         0.008973     -0.001807      0.013136
O	      6.42793      6.47065      2.19308         0.001627      0.003201      0.006133
O	      1.93068      2.24438      6.25267         0.003164     -0.003169     -0.002178
O	      2.00750      2.20722     10.74114        -0.007306      0.003344     -0.002807
O	      6.31251      6.21552     14.83157         0.001145     -0.004285      0.000092
O	      4.18095      8.33331     15.04981         0.003162      0.005169      0.007000
O	      4.30011      8.31445     10.50368         0.003781     -0.009220      0.001546
O	      8.36781      6.39340     12.66755        -0.001199     -0.005713      0.008111
O	      0.20115      1.79205     13.01570        -0.002193     -0.004992      0.015127
O	      6.68325      3.93563     16.74808        -0.004275     -0.005147      0.002838
O	      2.06130      4.38020      8.51384        -0.012294     -0.008086     -0.001850
O	      0.15522      4.45677     10.37167        -0.003937      0.002958      0.003017
O	      0.01763      4.08225     14.90703         0.004220     -0.000369      0.006148
O	      4.22701      2.10263      8.32104        -0.006207     -0.013755     -0.009136
O	      4.14551      6.40552     16.90135        -0.007906      0.000800      0.004798
O	      2.06927      8.47871     12.82515        -0.003270     -0.004376      0.004955
O	      6.44183      8.35557     12.72386         0.012543     -0.001642     -0.010263
O	      2.14807      6.36806     14.70741         0.017227     -0.011249     -0.011296
O	      6.17949      2.01988     10.56128        -0.007825      0.002909      0.001502
O	      4.17518      4.30608     10.65383        -0.006801      0.005749      0.000590
O	      4.35154      4.21994     15.03284         0.002474      0.003855      0.007946
O	      0.03524      2.06088     16.92423        -0.003619     -0.004666      0.000117
O	      8.48518      6.41885      8.54435         0.002075      0.007166     -0.003983
O	      0.05484      8.38198     14.91068         0.007868     -0.003843     -0.003786
O	      8.32795      8.38633     10.75673         0.004761      0.006797      0.000258
O	      4.33798      6.48759     12.93220         0.002664      0.007661     -0.001416
O	      4.22814      1.98068     12.82899        -0.002462     -0.008677      0.002235
O	      6.48104      1.98822     14.93213         0.001160      0.001946     -0.000333
O	      2.03372      6.30420     10.58047        -0.006030      0.003772      0.011808
O	      2.04542      4.06027     12.62761        -0.002450      0.012430     -0.002551
O	      6.26383      4.28030     12.90484        -0.004664     -0.007483     -0.000083
O	      6.22350      0.11103      8.65798         0.003765     -0.004975      0.001703
O	      2.27426      0.07775     16.92641         0.011476      0.010318      0.009050
O	      6.39987      6.41825     10.69714         0.005284     -0.011276      0.002142
O	      2.14023      1.92014     14.82430        -0.003035      0.012252      0.000092
O	      2.31545      2.00997     19.28375         0.000700      0.004927     -0.000441
O	      6.44155      6.42426     23.32159         0.000292     -0.003015      0.003952
O	      4.39579      0.04354     23.37185        -0.000594      0.000380     -0.002819
O	      4.44575      0.06262     19.08862        -0.003904      0.002563      0.002764
O	      0.12159      6.45797     21.33398        -0.003614      0.004890     -0.000352
O	      0.12309      2.11212     21.35125        -0.001797      0.002023      0.006961
O	      6.50150      4.22293     25.45087        -0.001003      0.003647     -0.001007
O	      2.14015      4.10828     17.01667         0.000717      0.005599     -0.005428
O	      0.02943      4.33289     19.01242         0.004182      0.000184     -0.007135
O	      8.47853      4.21080     23.53223        -0.003436     -0.004217     -0.000587
O	      4.41824      1.98246     17.11459         0.002203     -0.008163      0.001412
O	      4.21436      6.35339     25.44163         0.001782      0.000226      0.007226
O	      2.12121      0.14194     21.25937        -0.004025     -0.009974      0.003964
O	      6.58528      0.02846     21.21666        -0.009401      0.002126     -0.003097
O	      2.30922      6.37747     23.56016        -0.003547     -0.000611     -0.012302
O	      6.40322      2.03361     19.07219        -0.000141     -0.002660     -0.005056
O	      4.23413      4.17917     19.28159        -0.003686      0.000060     -0.011923
O	      4.57395      4.55829     23.11654        -0.005330     -0.005844      0.004781
O	      8.45497      2.28328     25.49678        -0.001577      0.000469     -0.003922
O	      8.50288      6.22247     17.13165         0.002395     -0.008387     -0.001365
O	      8.41038      0.17168     23.31316        -0.008453      0.004747      0.003539
O	      0.06017      8.48232     19.23511        -0.003177      0.006960     -0.001509
O	      4.42041      6.45952     21.30425        -0.000533      0.002549     -0.006517
O	      4.31213      2.23606     21.18543         0.007706      0.005466     -0.000228
O	      6.51095      2.28569     23.47136        -0.003369      0.001366      0.000778
O	      2.18485      6.41960     19.19411        -0.012357      0.000260      0.006681
O	      2.26472      4.14427     21.41893        -0.001797      0.006122      0.008677
O	      6.50486      4.37730     21.30477        -0.002123     -0.002966     -0.005368
O	      6.34940      0.00324     17.11223         0.002051     -0.003657      0.003397
O	      2.10744      0.01784      0.01213        -0.009805      0.003862      0.013557
O	      6.74501      6.61158     19.40739        -0.012261      0.004570      0.006725
O	      2.08133      2.05712     23.31950         0.001662     -0.016734      0.005965
