ITEM: TIMESTEP
0
ITEM: NUMBER OF ATOMS
20
ITEM: BOX BOUNDS xy xz yz pp pp pp
-1.4097261383580000e+00 1.2634893372084999e+01 0.0000000000000000e+00
0.0000000000000000e+00 3.1289210260000000e+00 -1.4097261383580000e+00
0.0000000000000000e+00 5.7926239146559997e+00 0.0000000000000000e+00
ITEM: ATOMS id type x y z fx fy fz
1 2       1.552490481577       1.564460000000       1.819971939210       0.023826547059       0.000003801243       0.029574847215
2 2       3.355224106475       0.000000000000       3.972652897867      -0.023736098125      -0.000003801495      -0.029595504574
3 2       0.009225221023       0.000000000000       4.604154019763      -0.032179850549      -0.000007584870      -0.023301561608
4 2       4.898499083431       1.564460000000       1.188473181954       0.032132560004       0.000007585252       0.023254943935
5 2       7.869941862205       0.000000000000       1.819971372746       0.023750843643      -0.000003801453       0.029579569349
6 2       9.672675487103       1.564460000000       3.972652331402      -0.023824955621       0.000003801532      -0.029585202844
7 2       6.326666885249       1.564460000000       4.604151088659      -0.032120450357       0.000007585325      -0.023205106715
8 2      11.215940747657       0.000000000000       1.188470250850       0.032210749050      -0.000007584814       0.023259011389
9 1       5.893411948513       0.000000000000       1.489840907657      -0.023542062756      -0.000009159105      -0.011051511824
10 1      -0.985697360461       1.564460000000       4.302783929421       0.023681512506       0.000009158124       0.011056401631
11 1       1.404579864186       0.000000000000       3.282122617411      -0.023972233462      -0.000002018905       0.028302654982
12 1       3.503146804908       1.564460000000       2.510494867903       0.023870990436       0.000002019532      -0.028176869277
13 1       3.038985115582       1.564460000000       5.156260579972      -0.000263425661       0.000004130202       0.009273578529
14 1       1.868739188873       0.000000000000       0.636366621745       0.000234596951      -0.000004130054      -0.009349252233
15 1      12.210863329141       1.564460000000       1.489840341192      -0.023672278348       0.000009158120      -0.011066823159
16 1       5.331754020167       0.000000000000       4.302783362956       0.023564157006      -0.000009158803       0.011063214929
17 1       7.722019163772       1.564460000000       3.282129402710      -0.023851204132       0.000002019559       0.028169362058
18 1       9.820588469133       0.000000000000       2.510491936799       0.023912782425      -0.000002019615      -0.028150674046
19 1       9.356426779807       0.000000000000       5.156257648868      -0.000214619496      -0.000004130190       0.009301769306
20 1       8.186190569501       1.564460000000       0.636366055280       0.000192439428       0.000004130415      -0.009352847042
