ITEM: TIMESTEP
0
ITEM: NUMBER OF ATOMS
30
ITEM: BOX BOUNDS xy xz yz pp pp pp
-2.5521126629999999e+00 5.1042253270000000e+00 -2.5521126629999999e+00
0.0000000000000000e+00 4.4203892209999998e+00 0.0000000000000000e+00
0.0000000000000000e+00 1.3740939987000001e+01 0.0000000000000000e+00
ITEM: ATOMS id type x y z fx fy fz
1 2       0.000000000000       0.000000000000       1.979880000000      -0.000010246459      -0.000016164317      -0.046064031492
2 2       0.000000000000       2.946930000000       0.310280000000      -0.000016456923      -0.000065013783       0.045988533943
3 2       2.552110000000       1.473460000000       2.600430000000       0.000013101241       0.000039936475       0.045927839619
4 2       0.000000000000       2.946930000000       4.270040000000      -0.000009812530      -0.000056285913      -0.046001763205
5 2       2.552110000000       1.473460000000       6.560190000000       0.000052643389       0.000078923551      -0.045950032639
6 2       0.000000000000       0.000000000000       4.890590000000      -0.000018547859       0.000018683142       0.046053484939
7 2       0.000000000000       2.946930000000       7.180750000000       0.000007114068      -0.000071675964       0.045990873638
8 2       0.000000000000       0.000000000000       8.850350000000       0.000015057463      -0.000006483465      -0.046061658255
9 2       0.000000000000       2.946930000000      11.140510000000      -0.000008644916      -0.000057454532      -0.045989628812
10 2       2.552110000000       1.473460000000       9.470900000000       0.000048857188       0.000049753013       0.045931652020
11 2       0.000000000000       0.000000000000      11.761060000000      -0.000024857497       0.000022892473       0.046041303373
12 2       2.552110000000       1.473460000000      13.430660000000       0.000018679090       0.000067402533      -0.045953921390
13 1       4.330870000000       1.339480000000       3.435230000000       0.027737541128      -0.047887057966       0.000095019768
14 1       1.546690000000       0.000000000000       3.435230000000      -0.055233437186       0.000002249398       0.000047827999
15 1       1.778770000000       3.080910000000       3.435230000000       0.027524524115       0.047905980973       0.000084147883
16 1       3.325460000000       0.133990000000       1.145070000000      -0.027619805307       0.047857475480       0.000109983419
17 1       3.325460000000       2.812940000000       1.145070000000      -0.027688953613      -0.047859812177       0.000095595374
18 1       1.005420000000       1.473460000000       1.145070000000       0.055268682982       0.000017660466       0.000090452375
19 1       1.778770000000       2.812940000000       8.015540000000       0.027645005392      -0.047862581794       0.000086490881
20 1       4.098810000000       1.473460000000       8.015540000000      -0.055299950663       0.000012821571       0.000080248392
21 1       1.778770000000       0.133990000000       8.015540000000       0.027565811491       0.047875106745       0.000136063206
22 1       0.773350000000       1.607450000000       5.725400000000      -0.027730104701       0.047850056561      -0.000178263452
23 1       0.773340000000       4.286400000000       5.725400000000      -0.027493951523      -0.047873583795      -0.000191877060
24 1      -1.546690000000       2.946930000000       5.725400000000       0.055224797978      -0.000022885623      -0.000112526006
25 1      -0.773350000000       4.286400000000      12.595870000000       0.027615356511      -0.047862381638      -0.000149991147
26 1       1.546690000000       2.946930000000      12.595870000000      -0.055260419468      -0.000007612420      -0.000127594291
27 1      -0.773350000000       1.607450000000      12.595870000000       0.027704296042       0.047842605064      -0.000163407347
28 1       3.325460000000       3.080910000000      10.305700000000      -0.027618854443       0.047903639998       0.000052963764
29 1       0.773350000000       1.339480000000      10.305700000000      -0.027687944903      -0.047886744352       0.000077317692
30 1       3.557530000000       0.000000000000      10.305700000000       0.055280519916      -0.000009449704       0.000054896812
