ITEM: TIMESTEP
0
ITEM: NUMBER OF ATOMS
30
ITEM: BOX BOUNDS xy xz yz pp pp pp
-2.5521126629999999e+00 5.1042253270000000e+00 -2.5521126629999999e+00
0.0000000000000000e+00 4.4203892209999998e+00 0.0000000000000000e+00
0.0000000000000000e+00 1.3740939987000001e+01 0.0000000000000000e+00
ITEM: ATOMS id type v_vir_xx v_vir_yy v_vir_zz v_vir_xy v_vir_xz v_vir_yz
1 2      -2.977007738928      -2.976910663194      -1.608207901217      -0.000027401629       0.000000277980       0.000005280368
2 2      -2.977003036271      -2.977045811757      -1.608431080682       0.000033269023       0.000001834855      -0.000018378352
3 2      -2.977001276356      -2.976978274711      -1.608246652146      -0.000010284129      -0.000003368165       0.000001468006
4 2      -2.976948995724      -2.976939057649      -1.608127884564      -0.000024835843      -0.000007230233       0.000022063348
5 2      -2.977051866280      -2.977071138990      -1.608448432985      -0.000012044542      -0.000003114187      -0.000031767847
6 2      -2.976976037807      -2.976904201176      -1.608104369923      -0.000056631180      -0.000006753661       0.000017438926
7 2      -2.977016612965      -2.977073756414      -1.608430280637      -0.000012211513       0.000006558077      -0.000028112001
8 2      -2.976960766124      -2.976916014302      -1.608208364823      -0.000027364863      -0.000006098033       0.000004085971
9 2      -2.976918026011      -2.976934989884      -1.608132433452       0.000015763012      -0.000005998051       0.000012534536
10 2      -2.976956807257      -2.976955642051      -1.608232914150      -0.000008690547      -0.000001873948       0.000004774161
11 2      -2.976966966454      -2.976878355453      -1.608108883853       0.000004146569      -0.000012661657       0.000016474029
12 2      -2.977000454548      -2.977055584322      -1.608435071249       0.000026201391       0.000005360980      -0.000019652149
13 1       2.071834732780       2.902624653962       1.569210106684      -0.719415920866       0.682492196164       0.394057635392
14 1       3.318040305564       1.656421308696       1.569212200630      -0.000028339817       0.000001975990      -0.788083571982
15 1       2.071895049496       2.902615161903       1.569226244821       0.719509626557      -0.682501421467       0.394037151773
16 1       2.071856428725       2.902566340010       1.569225184326      -0.719504391301       0.682509856733       0.394027132740
17 1       2.071828015591       2.902621427862       1.569193792941       0.719460935754      -0.682503218067       0.394057072840
18 1       3.317981920007       1.656448435262       1.569226440103      -0.000004262822      -0.000002930528      -0.788092184245
19 1       2.071795221047       2.902636005928       1.569212999158      -0.719445789575       0.682511175519       0.394048368395
20 1       3.318000447948       1.656470525062       1.569214653552      -0.000000573516       0.000002882848      -0.788084201625
21 1       2.071827245597       2.902572937929       1.569217673792       0.719497765538      -0.682517764039       0.394024697085
22 1       2.071818364073       2.902656467522       1.569215648586      -0.719416182524       0.682489605470       0.394057049816
23 1       2.071899490268       2.902603425874       1.569235442686       0.719524145792      -0.682509634660       0.394024539902
24 1       3.318048977058       1.656484234866       1.569212922531      -0.000011742414       0.000000307732      -0.788097436936
25 1       2.071863337039       2.902578717717       1.569219733134      -0.719507353224       0.682496500957       0.394028295979
26 1       3.317998231161       1.656461768637       1.569214944764       0.000004785285      -0.000004197630      -0.788092099931
27 1       2.071841592711       2.902648965111       1.569202006830       0.719452887233      -0.682497362106       0.394056679204
28 1       2.071846067104       2.902604138708       1.569206822615      -0.719475236622       0.682500514705       0.394046268481
29 1       2.071809602890       2.902625236104       1.569207348482       0.719448765957      -0.682487439470       0.394050515838
30 1       3.318007045155       1.656420683990       1.569206953221       0.000015074799      -0.000003903340      -0.788079014246
