ITEM: TIMESTEP
0
ITEM: NUMBER OF ATOMS
80
ITEM: BOX BOUNDS pp pp pp
0.0000000000000000e+00 9.4485883330000000e+00
0.0000000000000000e+00 9.4485883330000000e+00
0.0000000000000000e+00 9.4485883330000000e+00
ITEM: ATOMS id type c_pe_atom
1 2      -5.329699417267
2 2      -5.201910512599
3 2      -5.201905972418
4 2      -5.201907394307
5 2      -5.201905972418
6 2      -5.201905733043
7 2      -5.201907394307
8 2      -5.329699417267
9 2      -5.329698712676
10 2      -5.329699417267
11 2      -5.201905733043
12 2      -5.201907394307
13 2      -5.201910512599
14 2      -5.201905733043
15 2      -5.201910512599
16 2      -5.201905972418
17 2      -5.329700121948
18 2      -5.201904088425
19 2      -5.201909479836
20 2      -5.201907207114
21 2      -5.201909479836
22 2      -5.201909719142
23 2      -5.201907207114
24 2      -5.329700121948
25 2      -5.329700826506
26 2      -5.329700121948
27 2      -5.201909719142
28 2      -5.201907207114
29 2      -5.201904088425
30 2      -5.201909719142
31 2      -5.201904088425
32 2      -5.201909479836
33 1     -10.672632891952
34 1     -10.672652830323
35 1     -10.672616623259
36 1     -10.672643630133
37 1     -10.672627388154
38 1     -10.672628131689
39 1     -10.672616623259
40 1     -10.672627388154
41 1     -10.672628131689
42 1     -10.672642079515
43 1     -10.672616623259
44 1     -10.672632891952
45 1     -10.672648403358
46 1     -10.672627388154
47 1     -10.672652830323
48 1     -10.672643630133
49 1     -10.672642079515
50 1     -10.672648403358
51 1     -10.672642079515
52 1     -10.672652830323
53 1     -10.672632891952
54 1     -10.672648403358
55 1     -10.672643630133
56 1     -10.672628131689
57 1     -10.672630982510
58 1     -10.672634864338
59 1     -10.672648060893
60 1     -10.672635701397
61 1     -10.672642768617
62 1     -10.672627379147
63 1     -10.672648060893
64 1     -10.672642768617
65 1     -10.672627379147
66 1     -10.672630969233
67 1     -10.672648060893
68 1     -10.672630982510
69 1     -10.672630117183
70 1     -10.672642768617
71 1     -10.672634864338
72 1     -10.672635701397
73 1     -10.672630969233
74 1     -10.672630117183
75 1     -10.672630969233
76 1     -10.672634864338
77 1     -10.672630982510
78 1     -10.672630117183
79 1     -10.672635701397
80 1     -10.672627379147
