ITEM: TIMESTEP
0
ITEM: NUMBER OF ATOMS
80
ITEM: BOX BOUNDS pp pp pp
0.0000000000000000e+00 9.4485883330000000e+00
0.0000000000000000e+00 9.4485883330000000e+00
0.0000000000000000e+00 9.4485883330000000e+00
ITEM: ATOMS id type x y z fx fy fz
1 2       7.086440000000       2.362150000000       2.362150000000       0.000029384579      -0.000105099099      -0.000101637613
2 2       7.086440000000       4.385760000000       4.724290000000       0.000071667737       0.091504277174       0.000052538684
3 2       0.000000000000       7.086440000000       0.338530000000       0.000042295329       0.000061111162      -0.091307836441
4 2       0.000000000000       2.362150000000       4.385760000000       0.000072829984      -0.000136392259       0.091440823634
5 2       0.338530000000       0.000000000000       7.086440000000      -0.091307836441       0.000042295329       0.000061111162
6 2       0.338530000000       4.724290000000       2.362150000000      -0.091331193745       0.000083072882      -0.000146948444
7 2       2.362150000000       4.385760000000       0.000000000000      -0.000136392259       0.091440823634       0.000072829984
8 2       2.362150000000       7.086440000000       2.362150000000      -0.000101637613       0.000029384579      -0.000105099099
9 2       2.362150000000       2.362150000000       2.362150000000      -0.000059339479      -0.000059339479      -0.000059339479
10 2       2.362150000000       2.362150000000       7.086440000000      -0.000105099099      -0.000101637613       0.000029384579
11 2       2.362150000000       0.338530000000       4.724290000000      -0.000146948444      -0.091331193745       0.000083072882
12 2       4.385760000000       0.000000000000       2.362150000000       0.091440823634       0.000072829984      -0.000136392259
13 2       4.385760000000       4.724290000000       7.086440000000       0.091504277174       0.000052538684       0.000071667737
14 2       4.724290000000       2.362150000000       0.338530000000       0.000083072882      -0.000146948444      -0.091331193745
15 2       4.724290000000       7.086440000000       4.385760000000       0.000052538684       0.000071667737       0.091504277174
16 2       7.086440000000       0.338530000000       0.000000000000       0.000061111162      -0.091307836441       0.000042295329
17 2       2.362150000000       7.086440000000       7.086440000000      -0.000082828587       0.000050016318       0.000026528925
18 2       2.362150000000       9.110050000000       0.000000000000      -0.000115232926       0.091492433104       0.000012762912
19 2       4.724290000000       2.362150000000       5.062830000000       0.000023004068      -0.000104679690      -0.091481907882
20 2       4.724290000000       7.086440000000       9.110050000000       0.000053538798       0.000029398041       0.091555888494
21 2       5.062830000000       4.724290000000       2.362150000000      -0.091481907882       0.000023004068      -0.000104679690
22 2       5.062830000000       0.000000000000       7.086440000000      -0.091458548071       0.000043297636       0.000039952577
23 2       7.086440000000       9.110050000000       4.724290000000       0.000029398041       0.091555888494       0.000053538798
24 2       7.086440000000       2.362150000000       7.086440000000       0.000026528925      -0.000082828587       0.000050016318
25 2       7.086440000000       7.086440000000       7.086440000000       0.000025925083       0.000025925083       0.000025925083
26 2       7.086440000000       7.086440000000       2.362150000000       0.000050016318       0.000026528925      -0.000082828587
27 2       7.086440000000       5.062830000000       0.000000000000       0.000039952577      -0.091458548071       0.000043297636
28 2       9.110050000000       4.724290000000       7.086440000000       0.091555888494       0.000053538798       0.000029398041
29 2       9.110050000000       0.000000000000       2.362150000000       0.091492433104       0.000012762912      -0.000115232926
30 2       0.000000000000       7.086440000000       5.062830000000       0.000043297636       0.000039952577      -0.091458548071
31 2       0.000000000000       2.362150000000       9.110050000000       0.000012762912      -0.000115232926       0.091492433104
32 2       2.362150000000       5.062830000000       4.724290000000      -0.000104679690      -0.091481907882       0.000023004068
33 1       8.368220000000       5.778730000000       1.494560000000      -0.022608640323      -0.052097835704       0.032314599702
34 1       8.368220000000       3.669860000000       3.229730000000      -0.022680442385       0.052049445812      -0.032158542509
35 1       8.394160000000       1.494560000000       1.080370000000       0.052013631801       0.032302117279       0.022579673900
36 1       8.394160000000       3.229730000000       5.804670000000       0.051982846356      -0.032187699516       0.022493839721
37 1       1.054430000000       3.229730000000       1.080370000000      -0.052009034822      -0.032167088589       0.022606981815
38 1       1.054430000000       1.494560000000       5.804670000000      -0.052048977326       0.032308049210       0.022463347652
39 1       1.080370000000       8.394160000000       1.494560000000       0.022579673900       0.052013631801       0.032302117279
40 1       1.080370000000       1.054430000000       3.229730000000       0.022606981815      -0.052009034822      -0.032167088589
41 1       1.494560000000       5.804670000000       1.054430000000       0.032308049210       0.022463347652      -0.052048977326
42 1       1.494560000000       3.643920000000       3.669860000000       0.032324800502      -0.022512482591       0.052103672159
43 1       1.494560000000       1.080370000000       8.394160000000       0.032302117279       0.022579673900       0.052013631801
44 1       1.494560000000       8.368220000000       5.778730000000       0.032314599702      -0.022608640323      -0.052097835704
45 1       3.229730000000       3.643920000000       5.778730000000      -0.032225482115      -0.022498482085      -0.052081330266
46 1       3.229730000000       1.080370000000       1.054430000000      -0.032167088589       0.022606981815      -0.052009034822
47 1       3.229730000000       8.368220000000       3.669860000000      -0.032158542509      -0.022680442385       0.052049445812
48 1       3.229730000000       5.804670000000       8.394160000000      -0.032187699516       0.022493839721       0.051982846356
49 1       3.643920000000       3.669860000000       1.494560000000      -0.022512482591       0.052103672159       0.032324800502
50 1       3.643920000000       5.778730000000       3.229730000000      -0.022498482085      -0.052081330266      -0.032225482115
51 1       3.669860000000       1.494560000000       3.643920000000       0.052103672159       0.032324800502      -0.022512482591
52 1       3.669860000000       3.229730000000       8.368220000000       0.052049445812      -0.032158542509      -0.022680442385
53 1       5.778730000000       1.494560000000       8.368220000000      -0.052097835704       0.032314599702      -0.022608640323
54 1       5.778730000000       3.229730000000       3.643920000000      -0.052081330266      -0.032225482115      -0.022498482085
55 1       5.804670000000       8.394160000000       3.229730000000       0.022493839721       0.051982846356      -0.032187699516
56 1       5.804670000000       1.054430000000       1.494560000000       0.022463347652      -0.052048977326       0.032308049210
57 1       3.643920000000       1.054430000000       6.218850000000      -0.022499627659      -0.052040456572       0.032288372139
58 1       3.643920000000       8.394160000000       7.954030000000      -0.022503321060       0.052011152633      -0.032342863991
59 1       3.669860000000       6.218850000000       5.804670000000       0.052121674837       0.032298207457       0.022466570428
60 1       3.669860000000       7.954030000000       1.080370000000       0.052118558705      -0.032332086395       0.022583403980
61 1       5.778730000000       7.954030000000       5.804670000000      -0.052136161953      -0.032373729337       0.022425771034
62 1       5.778730000000       6.218850000000       1.080370000000      -0.052130120933       0.032313302399       0.022538399381
63 1       5.804670000000       3.669860000000       6.218850000000       0.022466570428       0.052121674837       0.032298207457
64 1       5.804670000000       5.778730000000       7.954030000000       0.022425771034      -0.052136161953      -0.032373729337
65 1       6.218850000000       1.080370000000       5.778730000000       0.032313302399       0.022538399381      -0.052130120933
66 1       6.218850000000       8.368220000000       8.394160000000       0.032257141914      -0.022640280532       0.051990827195
67 1       6.218850000000       5.804670000000       3.669860000000       0.032298207457       0.022466570428       0.052121674837
68 1       6.218850000000       3.643920000000       1.054430000000       0.032288372139      -0.022499627659      -0.052040456572
69 1       7.954030000000       8.368220000000       1.054430000000      -0.032296956501      -0.022640791789      -0.052023055942
70 1       7.954030000000       5.804670000000       5.778730000000      -0.032373729337       0.022425771034      -0.052136161953
71 1       7.954030000000       3.643920000000       8.394160000000      -0.032342863991      -0.022503321060       0.052011152633
72 1       7.954030000000       1.080370000000       3.669860000000      -0.032332086395       0.022583403980       0.052118558705
73 1       8.368220000000       8.394160000000       6.218850000000      -0.022640280532       0.051990827195       0.032257141914
74 1       8.368220000000       1.054430000000       7.954030000000      -0.022640791789      -0.052023055942      -0.032296956501
75 1       8.394160000000       6.218850000000       8.368220000000       0.051990827195       0.032257141914      -0.022640280532
76 1       8.394160000000       7.954030000000       3.643920000000       0.052011152633      -0.032342863991      -0.022503321060
77 1       1.054430000000       6.218850000000       3.643920000000      -0.052040456572       0.032288372139      -0.022499627659
78 1       1.054430000000       7.954030000000       8.368220000000      -0.052023055942      -0.032296956501      -0.022640791789
79 1       1.080370000000       3.669860000000       7.954030000000       0.022583403980       0.052118558705      -0.032332086395
80 1       1.080370000000       5.778730000000       6.218850000000       0.022538399381      -0.052130120933       0.032313302399
