ITEM: TIMESTEP
0
ITEM: NUMBER OF ATOMS
40
ITEM: BOX BOUNDS pp pp pp
0.0000000000000000e+00 8.6965056199999999e+00
0.0000000000000000e+00 5.0642482209999997e+00
0.0000000000000000e+00 9.3055165479999999e+00
ITEM: ATOMS id type x y z fx fy fz
1 2       1.367070000000       1.563250000000       8.258430000000       0.058759270083       0.065788346170       0.047596551744
2 2       3.088940000000       4.095360000000       8.258440000000      -0.058763908278       0.066055080543       0.047495106028
3 2       5.721010000000       0.902340000000       7.431320000000      -0.031458847419       0.042497621052      -0.108130586802
4 2       7.431500000000       3.434460000000       7.431320000000       0.031428166225       0.042606985183      -0.108063630608
5 2       4.676510000000       3.429630000000       5.548400000000       0.089464404866      -0.067510283168       0.185084315374
6 2       1.460400000000       3.477240000000       5.672860000000       0.056423598196      -0.207792489618       0.171420502636
7 2       2.995600000000       0.945110000000       5.672860000000      -0.056316295206      -0.207735583373       0.171376115725
8 2       8.476010000000       0.897500000000       5.548410000000      -0.089515179448      -0.067403093866       0.185052574645
9 2       1.372630000000       1.629450000000       2.778620000000      -0.029259291473      -0.042753485584      -0.108644865108
10 2       3.083380000000       4.161580000000       2.778620000000       0.029236060203      -0.042894307494      -0.108587546914
11 2       5.714800000000       0.969470000000       3.605630000000       0.055566527278      -0.065005651005       0.050096777051
12 2       7.437720000000       3.501590000000       3.605630000000      -0.055677957611      -0.064950863907       0.050092274132
13 2       4.128200000000       1.634950000000       0.895770000000      -0.088916843822       0.069360135546       0.185247369700
14 2       5.808530000000       4.119100000000       1.019970000000       0.056500563553       0.209636409425       0.170547827685
15 2       7.343980000000       1.586980000000       1.019970000000      -0.056322898147       0.209486327078       0.170472869958
16 2       0.327810000000       4.167070000000       0.895770000000       0.088869223959       0.069464133447       0.185280049690
17 1       7.262780000000       1.767610000000       4.396000000000       0.048643535576      -0.040226583850       0.045609153822
18 1       0.027180000000       0.765330000000       0.023080000000       0.030761293164      -0.092581211271      -0.020557375975
19 1       7.299560000000       0.105930000000       6.876590000000      -0.068226944793       0.031390970405      -0.036315161976
20 1       7.233030000000       4.935510000000       2.122440000000       0.110626494632       0.026391214733      -0.133823633033
21 1       5.889730000000       4.299740000000       4.396000000000      -0.048442277555      -0.040313297588       0.045508125955
22 1       7.367140000000       3.315770000000       9.291980000000      -0.059178363306      -0.142154474614      -0.062262790638
23 1       5.852950000000       2.638060000000       6.876590000000       0.068158442137       0.031308578064      -0.036309170403
24 1       5.919490000000       2.403390000000       2.122450000000      -0.110657034774       0.026410164350      -0.133915364509
25 1       1.436800000000       1.748400000000       4.639360000000       0.059549714335       0.141507477603      -0.063233002228
26 1       2.914940000000       0.765070000000       9.048940000000       0.048497029746       0.038314001812       0.045417792909
27 1       1.572220000000       0.128060000000       6.775870000000      -0.111669414466      -0.027737903448      -0.132070675606
28 1       1.504720000000       4.957930000000       2.223980000000       0.069150469551      -0.030223809137      -0.035207097828
29 1       0.081050000000       4.299350000000       4.675880000000      -0.032931828594       0.092346001531      -0.020579090702
30 1       1.541070000000       3.297190000000       9.048940000000      -0.048527552325       0.038436146551       0.045522783605
31 1       0.159860000000       2.415890000000       6.827150000000      -0.130415208215       0.032312315882      -0.090193500184
32 1       8.644140000000       2.647980000000       2.174650000000       0.128602209042      -0.033832323812      -0.089975007102
33 1       4.374960000000       1.767220000000       4.675880000000       0.032852317201       0.092443873532      -0.020459848605
34 1       5.785380000000       0.783640000000       9.291980000000       0.059100383818      -0.142038029931      -0.062259475110
35 1       4.296140000000       4.948010000000       6.827150000000       0.130485659785       0.032392586320      -0.090120300871
36 1       4.508380000000       0.115860000000       2.174650000000      -0.128644933596      -0.033890344051      -0.089982592796
37 1       3.019210000000       4.280520000000       4.639370000000      -0.059573537154       0.141521612759      -0.063441439432
38 1       4.428830000000       3.297460000000       0.023080000000      -0.030711796434      -0.092736961984      -0.020493950471
39 1       2.883770000000       2.660190000000       6.775880000000       0.111637295287      -0.027899970437      -0.132038008975
40 1       2.951290000000       2.425800000000       2.223980000000      -0.069102546020      -0.029989313847      -0.035156074782
