160
Config_type=bulk_gamma_phase Weight=1.0 Lattice="8.328292525 0.000000000 0.000000000 0.000000000 8.328292525 0.000000000 0.000000000 0.000000000 24.984877574" Energy=-1360.31558720 Virial="27.26530 0.32227 -19.91905 0.32227 26.68199 -2.17917 -19.91905 -2.17917 31.68169" pbc="T T T" Properties=species:S:1:pos:R:3:forces:R:3
Ga	      1.20818      5.17307     21.96704         0.008657     -0.008682     -0.012677
Ga	      5.17110      0.83987     13.60043         0.006058      0.002606      0.000938
Ga	      7.11487      7.36378      7.34993        -0.005168     -0.014324     -0.011548
Ga	      7.24843      7.09236     15.68778        -0.015245      0.003465      0.000738
Ga	      5.19475      5.22531      0.97901        -0.010492     -0.011956     -0.008747
Ga	      3.01310      3.18683      7.17333         0.002565      0.002211      0.016568
Ga	      0.94478      1.04408      1.09066        -0.021386      0.003467     -0.012813
Ga	      5.14164      1.02946      5.21387         0.008257     -0.008411     -0.009505
Ga	      3.16510      2.94712     15.56268        -0.023761     -0.016845     -0.021150
Ga	      5.35438      1.10960     21.79523         0.016344     -0.010593     -0.005105
Ga	      3.11729      7.20836     11.45366        -0.001420      0.006503     -0.015811
Ga	      7.37894      3.17882     19.70503         0.001294     -0.007296     -0.002520
Ga	      1.01275      5.06768     13.41446         0.008384     -0.007790      0.011444
Ga	      7.28801      3.20292      3.18755         0.012126     -0.014508      0.020534
Ga	      5.07157      5.30985      9.31752         0.005960     -0.007132      0.008669
Ga	      7.31574      7.39797     23.97430         0.030900     -0.006790     -0.003149
Ga	      3.17898      7.41094     19.82812        -0.022704      0.013105      0.021635
Ga	      0.90720      1.07253      9.46727        -0.010161     -0.014607     -0.008221
Ga	      3.21118      7.38482      3.07179        -0.004659     -0.005170      0.005969
Ga	      1.16920      1.03202     17.72602         0.005884     -0.004335     -0.000996
Ga	      3.90519      0.19144      8.34203         0.001758      0.009767     -0.002659
Ga	      6.10799      6.07837     12.46800        -0.019944     -0.002365      0.035412
Ga	      2.15048      2.12753     20.83651        -0.003999      0.003509      0.001676
Ga	      6.37079      6.25901     20.78469         0.009025      0.006663     -0.005001
Ga	      1.95051      6.36017      8.23737        -0.011484      0.027873     -0.006724
Ga	      8.28231      2.05081      6.20743         0.013937     -0.002200      0.016511
Ga	      1.98275      2.08260      4.20137        -0.007839     -0.005061      0.001494
Ga	      0.04609      2.00179     14.53228         0.004293     -0.000453     -0.021231
Ga	      0.16704      6.17071     18.69476         0.002434      0.002773      0.013760
Ga	      6.23895      0.05644      2.09174        -0.011030     -0.019725      0.015125
Ga	      6.06590      0.07555     10.47362        -0.006333      0.004509     -0.004081
Ga	      4.15681      2.18665     18.69078        -0.012814      0.000959      0.016475
Ga	      6.37467      8.28525     18.74282         0.025853      0.014429     -0.015881
Ga	      6.31984      2.04602     16.64145        -0.008207     -0.001885      0.006424
Ga	      0.15905      2.06023     22.95602        -0.000283     -0.008361      0.002402
Ga	      2.02157      8.11415     14.66998         0.002997     -0.006002      0.003508
Ga	      3.99318      5.99357     14.58265         0.015366     -0.008777      0.007150
Ga	      6.22206      4.18551      6.26752         0.007775     -0.008894     -0.019401
Ga	      4.18465      6.35231     22.94219         0.018086      0.012754      0.006746
Ga	      0.09723      4.16569     16.65578         0.008522     -0.013040     -0.001104
Ga	      2.07760      4.21702      2.08105        -0.008277     -0.019800      0.007684
Ga	      4.11857      4.27970     20.76932         0.003056      0.005914      0.018946
Ga	      4.12380      8.13468     16.71948        -0.000135     -0.008718     -0.000802
Ga	      6.26359      4.21908     22.86129        -0.006330     -0.009788     -0.005668
Ga	      8.26416      6.16981     10.39206         0.022255      0.009263     -0.007617
Ga	      8.31156      8.26234     12.51517        -0.002154      0.029888     -0.034393
Ga	      0.03540      4.25113      0.03716         0.013287      0.001106     -0.020178
Ga	      6.18747      4.04090     14.54717         0.004041      0.015108      0.000337
Ga	      4.11083      4.17256      4.13304         0.004865     -0.004718     -0.028588
Ga	      2.11750      2.02374     12.41739         0.006594      0.017821      0.002609
Ga	      2.08335      4.08657     10.42325         0.002353      0.000480      0.003876
Ga	      0.04153      6.39289      2.18555        -0.016044     -0.005133     -0.010959
Ga	      0.20240      8.28900     20.92268        -0.005208      0.002048     -0.013767
Ga	      4.10129      2.03235      1.97226         0.008590      0.023552      0.002146
Ga	      6.16850      2.04783     24.93898         0.003498     -0.010219      0.010965
Ga	      8.30142      4.12014      8.32573        -0.012290      0.014206      0.002199
Ga	      6.05378      2.15600      8.43030        -0.010333     -0.016225     -0.004717
Ga	      3.99714      6.38774      6.18596         0.000955      0.024057      0.008958
Ga	      6.30405      6.38377      4.21640        -0.006016      0.005005     -0.016787
Ga	      2.16830      6.34855     24.95087        -0.008443      0.023865     -0.001991
Ga	      5.13937      3.10654     11.49421         0.014675     -0.029909     -0.002659
Ga	      3.15588      1.07142     23.92350         0.005281      0.025592     -0.006983
Ga	      3.15710      5.13934     17.69275         0.003342     -0.001290     -0.001526
Ga	      0.98250      7.35247      5.19861         0.001920     -0.019381      0.004420
O	      2.10761      2.13645      2.11128         0.004848     -0.002994      0.002985
O	      6.10980      6.19977      6.21120        -0.000165     -0.000859     -0.005005
O	      4.21447      8.27115      6.38616        -0.009893      0.013706      0.004990
O	      4.28212      0.12618      2.05722        -0.004314      0.009651      0.005514
O	      8.21487      6.30457      4.10353        -0.004661     -0.008725     -0.003395
O	      0.02538      2.15022      4.24315         0.002118     -0.000675      0.001329
O	      6.17030      4.14968      8.29815        -0.009098      0.004051     -0.002767
O	      1.91632      4.40236      0.21301         0.000209      0.008583     -0.004442
O	      8.32152      4.32506      2.06208         0.003196     -0.003072     -0.012435
O	      8.09415      4.00486      6.45930        -0.008796     -0.006301     -0.000735
O	      4.25566      2.11733      0.04914         0.000244      0.008166      0.003202
O	      3.99313      6.35243      8.19814        -0.003586     -0.006224     -0.001199
O	      2.10105      0.08300      4.14522         0.002261     -0.018240     -0.008870
O	      6.12218      8.27947      4.06806        -0.017416     -0.000862      0.008908
O	      2.08318      6.33474      6.31117         0.000548     -0.007642      0.001420
O	      6.18641      2.11576      2.01938         0.003491     -0.004370      0.002625
O	      4.15729      4.10176      2.10052        -0.005892      0.014467      0.004083
O	      4.19859      4.30500      6.14127        -0.005084      0.005305      0.012293
O	      8.12774      2.09029      8.30781        -0.000085      0.001689     -0.014280
O	      0.04506      6.26725      0.09117        -0.000694      0.002339     -0.003035
O	      8.18623      0.06797      6.26442        -0.001054     -0.013117     -0.006226
O	      8.19561      8.30263      2.10360         0.006661     -0.006196      0.000277
O	      4.21687      6.19948      4.20257        -0.007056      0.003368      0.006021
O	      4.09867      2.15695      4.08093        -0.010832      0.004193     -0.001431
O	      6.21618      2.15595      6.31819        -0.000612     -0.004307     -0.001712
O	      2.04240      6.29464      2.05054         0.008756      0.003685     -0.000408
O	      2.23178      4.02982      3.94810         0.001679     -0.002918      0.000984
O	      6.12381      4.29536      4.24562        -0.005261      0.001028     -0.004339
O	      6.33491      0.14929      0.11169         0.015072      0.010363      0.000595
O	      2.01461      8.28144      8.46284        -0.008532     -0.005106     -0.009088
O	      6.28790      6.31704      2.14613        -0.006907     -0.002117     -0.005708
O	      1.91137      2.13556      6.13902         0.001909     -0.002805      0.008473
O	      2.02301      2.13379     10.47551        -0.009118      0.002718      0.001167
O	      6.16466      6.08865     14.50294         0.011141     -0.006141     -0.000190
O	      4.08392      8.13726     14.71262        -0.005271      0.002930      0.004410
O	      4.18060      8.17397     10.28634         0.000141      0.004990     -0.003279
O	      8.18500      6.25049     12.40345         0.005231      0.002359      0.010001
O	      0.16023      1.80557     12.66617         0.003265     -0.004206      0.009982
O	      6.49235      3.90668     16.43385         0.024418     -0.008956      0.002897
O	      2.01232      4.29051      8.34325        -0.000179     -0.003766      0.005995
O	      0.11713      4.30027     10.19283         0.002949      0.001585     -0.007786
O	      8.32441      3.99659     14.59224         0.007931     -0.005485     -0.010564
O	      4.13018      2.08769      8.19310        -0.007948     -0.000334     -0.001616
O	      4.12517      6.23945     16.54049         0.000852     -0.010506     -0.004457
O	      2.01100      8.28271     12.55756        -0.001405     -0.007822     -0.000994
O	      6.29365      8.16316     12.45127        -0.004710      0.001207     -0.002215
O	      2.08412      6.20801     14.43619         0.001919     -0.018332     -0.004091
O	      6.11073      1.99388     10.34906        -0.001280      0.011115      0.000024
O	      4.07896      4.21696     10.41656         0.007784      0.005038      0.004829
O	      4.25104      4.09896     14.63570        -0.000943     -0.010106     -0.001003
O	      0.02383      2.02276     16.55565         0.008528      0.009781      0.010943
O	      8.27825      6.25006      8.35775        -0.003711      0.004165      0.000010
O	      0.03114      8.22006     14.57489        -0.000753     -0.003329      0.002289
O	      8.14366      8.19654     10.50381         0.006232      0.007804     -0.011125
O	      4.22481      6.29908     12.63413        -0.000533     -0.009514      0.007377
O	      4.12133      1.93331     12.53980         0.001943     -0.001576     -0.004968
O	      6.33451      1.95631     14.60594        -0.009620     -0.002037      0.004630
O	      1.97329      6.16653     10.33876         0.013021      0.000593     -0.000519
O	      2.05528      3.98435     12.36738        -0.014329     -0.007499     -0.003941
O	      6.19948      4.16841     12.60497        -0.000543     -0.000502     -0.007085
O	      6.06655      0.10737      8.46311         0.005088      0.001770     -0.003402
O	      2.21158      0.03226     16.57739        -0.011308      0.009384      0.002677
O	      6.25192      6.28883     10.45694        -0.001656      0.000810      0.005405
O	      2.07378      1.86014     14.49339        -0.000166     -0.002320      0.005658
O	      2.25578      2.00734     18.85474         0.004057     -0.008438      0.001294
O	      6.29736      6.26857     22.81215        -0.001772      0.009787      0.000170
O	      4.30097      0.02922     22.86267        -0.013019      0.018349      0.015533
O	      4.34710      0.07428     18.68501        -0.002127     -0.011517     -0.003741
O	      0.10395      6.30134     20.83882         0.001673      0.005719     -0.001535
O	      0.10369      2.06210     20.88306        -0.006467      0.002955     -0.003787
O	      6.35628      4.13566     24.89703        -0.000038      0.007265      0.010015
O	      2.09029      4.01354     16.63561         0.008888      0.002647      0.003324
O	      0.08124      4.21656     18.61162        -0.003490      0.004099      0.009643
O	      8.28672      4.12535     22.99822        -0.008170     -0.001611     -0.010119
O	      4.31207      1.92264     16.72010        -0.002763      0.001868     -0.006096
O	      4.13171      6.27349     24.89656        -0.001209     -0.002647      0.004183
O	      2.09309      0.14588     20.84006         0.001747      0.001077     -0.000324
O	      6.44767      0.00492     20.75037        -0.004458     -0.002595      0.004487
O	      2.23172      6.29456     23.01220        -0.012231      0.010829     -0.007930
O	      6.26095      1.98370     18.66324        -0.000267      0.001861      0.002412
O	      4.21575      4.10045     18.83741         0.010267     -0.013060     -0.003276
O	      4.40909      4.42067     22.66175         0.002183      0.011027     -0.004559
O	      8.25920      2.22722     24.94562         0.012222      0.007752      0.005219
O	      0.05144      6.10946     16.73751         0.004018     -0.009925      0.003907
O	      8.26759      0.15277     22.82030        -0.009133      0.004277      0.000016
O	      0.05893      8.29048     18.82763         0.011962     -0.002441     -0.005016
O	      4.33423      6.31302     20.84440         0.001458     -0.002556      0.015991
O	      4.22554      2.18763     20.72422         0.001966     -0.005625      0.009743
O	      6.37930      2.22495     22.94956         0.000751      0.013095      0.002114
O	      2.14012      6.28142     18.77518         0.015686      0.002626      0.003868
O	      2.20284      4.07940     20.87363         0.021219      0.013494     -0.003852
O	      6.32145      4.26243     20.83991        -0.005531     -0.007199      0.009929
O	      6.21175      0.00892     16.72664        -0.009327     -0.002240      0.002042
O	      2.05591      0.01393      0.01958        -0.008642      0.010695      0.015582
O	      6.55587      6.41032     18.91737         0.000826     -0.000425      0.012531
O	      2.05378      2.08520     22.81643        -0.017337      0.010862     -0.001807
