ITEM: TIMESTEP
0
ITEM: NUMBER OF ATOMS
80
ITEM: BOX BOUNDS pp pp pp
0.0000000000000000e+00 9.2980132199999996e+00
0.0000000000000000e+00 9.2980132199999996e+00
0.0000000000000000e+00 9.2980132199999996e+00
ITEM: ATOMS id type v_vir_xx v_vir_yy v_vir_zz v_vir_xy v_vir_xz v_vir_yz
1 2      -6.717622866685      -6.717570909691      -6.717561139767      -1.315335453017       1.315348703544       1.315308969961
2 2      -5.861471609244      -6.031872564124      -6.039753924334      -0.000010713815       0.521142079799      -0.000009426060
3 2      -6.039839405832      -5.861553611732      -6.031959229157       0.521153566683      -0.000008299483       0.000015936642
4 2      -6.039717703756      -5.861382510744      -6.031856525445      -0.521136438162      -0.000000499702       0.000002859501
5 2      -6.031959229157      -6.039839405832      -5.861553611732      -0.000008299483       0.000015936642       0.521153566683
6 2      -6.031882579788      -6.039772329866      -5.861406089651       0.000018220133       0.000002357785      -0.521152027291
7 2      -5.861382510744      -6.031856525445      -6.039717703756       0.000002859501      -0.521136438162      -0.000000499702
8 2      -6.717561139767      -6.717622866685      -6.717570909691       1.315348703544       1.315308969961      -1.315335453017
9 2      -6.717499606768      -6.717499606768      -6.717499606768      -1.315322097891      -1.315322097891      -1.315322097891
10 2      -6.717570909691      -6.717561139767      -6.717622866685       1.315308969961      -1.315335453017       1.315348703544
11 2      -5.861406089651      -6.031882579788      -6.039772329866       0.000002357785      -0.521152027291       0.000018220133
12 2      -6.031856525445      -6.039717703756      -5.861382510744      -0.000000499702       0.000002859501      -0.521136438162
13 2      -6.031872564124      -6.039753924334      -5.861471609244      -0.000009426060      -0.000010713815       0.521142079799
14 2      -6.039772329866      -5.861406089651      -6.031882579788      -0.521152027291       0.000018220133       0.000002357785
15 2      -6.039753924334      -5.861471609244      -6.031872564124       0.521142079799      -0.000009426060      -0.000010713815
16 2      -5.861553611732      -6.031959229157      -6.039839405832       0.000015936642       0.521153566683      -0.000008299483
17 2      -6.717632434141      -6.717684394759      -6.717694169899      -1.315335576840       1.315322325164       1.315362054613
18 2      -5.861416294174      -6.031913770653      -6.039778630004      -0.000015476963       0.521151309943       0.000014410824
19 2      -6.039766193773      -5.861390771226      -6.031919019872       0.521146451779       0.000003331803       0.000010258753
20 2      -6.039814846067      -5.861505381487      -6.031929791246      -0.521156941248      -0.000012119938      -0.000002814379
21 2      -6.031919019872      -6.039766193773      -5.861390771226       0.000003331803       0.000010258753       0.521146451779
22 2      -6.031995656299      -6.039833256502      -5.861538289360      -0.000005619074      -0.000002408031      -0.521147994750
23 2      -5.861505381487      -6.031929791246      -6.039814846067      -0.000002814379      -0.521156941248      -0.000012119938
24 2      -6.717694169899      -6.717632434141      -6.717684394759       1.315322325164       1.315362054613      -1.315335576840
25 2      -6.717755694899      -6.717755694899      -6.717755694899      -1.315348927568      -1.315348927568      -1.315348927568
26 2      -6.717684394759      -6.717694169899      -6.717632434141       1.315362054613      -1.315335576840       1.315322325164
27 2      -5.861538289360      -6.031995656299      -6.039833256502      -0.000002408031      -0.521147994750      -0.000005619074
28 2      -6.031929791246      -6.039814846067      -5.861505381487      -0.000012119938      -0.000002814379      -0.521156941248
29 2      -6.031913770653      -6.039778630004      -5.861416294174       0.000014410824      -0.000015476963       0.521151309943
30 2      -6.039833256502      -5.861538289360      -6.031995656299      -0.521147994750      -0.000005619074      -0.000002408031
31 2      -6.039778630004      -5.861416294174      -6.031913770653       0.521151309943       0.000014410824      -0.000015476963
32 2      -5.861390771226      -6.031919019872      -6.039766193773       0.000010258753       0.521146451779       0.000003331803
33 1       3.514088707241       3.578819891168       3.046703799555      -0.472522907310       0.748112404813       0.141128163263
34 1       3.514074934059       3.578837334966       3.046717114604       0.472523984374      -0.748097421077       0.141129663837
35 1       3.578837127332       3.046704370862       3.514096256605      -0.141126403297      -0.472518621774      -0.748103806411
36 1       3.578829947035       3.046714356000       3.514076844115       0.141111286656      -0.472528528489       0.748088178242
37 1       3.578833775243       3.046706348756       3.514084503048      -0.141117945845       0.472518017907       0.748083017864
38 1       3.578833286832       3.046705930333       3.514081561902       0.141135715581       0.472498407452      -0.748097559514
39 1       3.514096256605       3.578837127332       3.046704370862      -0.472518621774      -0.748103806411      -0.141126403297
40 1       3.514084503048       3.578833775243       3.046706348756       0.472518017907       0.748083017864      -0.141117945845
41 1       3.046705930333       3.514081561902       3.578833286832      -0.748097559514       0.141135715581       0.472498407452
42 1       3.046693492392       3.514094203412       3.578839200330       0.748082097556      -0.141162141916       0.472503156041
43 1       3.046704370862       3.514096256605       3.578837127332      -0.748103806411      -0.141126403297      -0.472518621774
44 1       3.046703799555       3.514088707241       3.578819891168       0.748112404813       0.141128163263      -0.472522907310
45 1       3.046690558971       3.514091494432       3.578815053111      -0.748066904285      -0.141127745260      -0.472531587923
46 1       3.046706348756       3.514084503048       3.578833775243       0.748083017864      -0.141117945845       0.472518017907
47 1       3.046717114604       3.514074934059       3.578837334966      -0.748097421077       0.141129663837       0.472523984374
48 1       3.046714356000       3.514076844115       3.578829947035       0.748088178242       0.141111286656      -0.472528528489
49 1       3.514094203412       3.578839200330       3.046693492392       0.472503156041       0.748082097556      -0.141162141916
50 1       3.514091494432       3.578815053111       3.046690558971      -0.472531587923      -0.748066904285      -0.141127745260
51 1       3.578839200330       3.046693492392       3.514094203412      -0.141162141916       0.472503156041       0.748082097556
52 1       3.578837334966       3.046717114604       3.514074934059       0.141129663837       0.472523984374      -0.748097421077
53 1       3.578819891168       3.046703799555       3.514088707241       0.141128163263      -0.472522907310       0.748112404813
54 1       3.578815053111       3.046690558971       3.514091494432      -0.141127745260      -0.472531587923      -0.748066904285
55 1       3.514076844115       3.578829947035       3.046714356000      -0.472528528489       0.748088178242       0.141111286656
56 1       3.514081561902       3.578833286832       3.046705930333       0.472498407452      -0.748097559514       0.141135715581
57 1       3.514094932165       3.578843390015       3.046690035014      -0.472505940892       0.748074314151       0.141115495828
58 1       3.514104215644       3.578844586192       3.046705706465       0.472524966990      -0.748081643277       0.141114427804
59 1       3.578843632067       3.046707321816       3.514068915864      -0.141121993490      -0.472506985753      -0.748094062540
60 1       3.578848662953       3.046714994224       3.514085854975       0.141127588847      -0.472515502999       0.748096233315
61 1       3.578824027875       3.046711670100       3.514080217669      -0.141110976921       0.472524325037       0.748095571464
62 1       3.578826680897       3.046694432809       3.514085621939       0.141102731767       0.472525515385      -0.748094492234
63 1       3.514068915864       3.578843632067       3.046707321816      -0.472506985753      -0.748094062540      -0.141121993490
64 1       3.514080217669       3.578824027875       3.046711670100       0.472524325037       0.748095571464      -0.141110976921
65 1       3.046694432809       3.514085621939       3.578826680897      -0.748094492234       0.141102731767       0.472525515385
66 1       3.046711703347       3.514087438619       3.578844887051       0.748110420004      -0.141091486032       0.472527383879
67 1       3.046707321816       3.514068915864       3.578843632067      -0.748094062540      -0.141121993490      -0.472506985753
68 1       3.046690035014       3.514094932165       3.578843390015       0.748074314151       0.141115495828      -0.472505940892
69 1       3.046720929022       3.514089683611       3.578846065577      -0.748106343640      -0.141106391995      -0.472515686402
70 1       3.046711670100       3.514080217669       3.578824027875       0.748095571464      -0.141110976921       0.472524325037
71 1       3.046705706465       3.514104215644       3.578844586192      -0.748081643277       0.141114427804       0.472524966990
72 1       3.046714994224       3.514085854975       3.578848662953       0.748096233315       0.141127588847      -0.472515502999
73 1       3.514087438619       3.578844887051       3.046711703347       0.472527383879       0.748110420004      -0.141091486032
74 1       3.514089683611       3.578846065577       3.046720929021      -0.472515686402      -0.748106343640      -0.141106391995
75 1       3.578844887051       3.046711703347       3.514087438619      -0.141091486032       0.472527383879       0.748110420004
76 1       3.578844586192       3.046705706465       3.514104215644       0.141114427804       0.472524966990      -0.748081643277
77 1       3.578843390015       3.046690035014       3.514094932165       0.141115495828      -0.472505940892       0.748074314151
78 1       3.578846065577       3.046720929021       3.514089683611      -0.141106391995      -0.472515686402      -0.748106343640
79 1       3.514085854975       3.578848662953       3.046714994224      -0.472515502999       0.748096233315       0.141127588847
80 1       3.514085621939       3.578826680897       3.046694432809       0.472525515385      -0.748094492234       0.141102731767
