ITEM: TIMESTEP
0
ITEM: NUMBER OF ATOMS
160
ITEM: BOX BOUNDS pp pp pp
0.0000000000000000e+00 8.4669419730000008e+00
0.0000000000000000e+00 8.4669419730000008e+00
0.0000000000000000e+00 2.5400825916999999e+01
ITEM: ATOMS id type x y z fx fy fz
1 2       1.227090000000       5.256190000000      22.343100000000      -0.166073318578       0.129903616094      -0.056474743195
2 2       5.261500000000       0.856160000000      13.825460000000      -0.135700444105      -0.040298154974      -0.022039319929
3 2       7.240000000000       7.486990000000       7.469540000000      -0.142612561967       0.037078396491      -0.038446290025
4 2       7.369600000000       7.213900000000      15.943870000000       0.002365838911       0.024822074756       0.005914886865
5 2       5.285540000000       5.304360000000       0.992380000000       0.169468498682       0.262134689951       0.017906409321
6 2       3.064620000000       3.238650000000       7.287660000000       0.042785311817      -0.106147998214      -0.017325298069
7 2       0.964860000000       1.058120000000       1.096520000000      -0.117762069895       0.073300819643      -0.038072806232
8 2       5.228100000000       1.036870000000       5.299740000000       0.020911784566       0.181771512015       0.022029578929
9 2       3.218670000000       3.001420000000      15.833660000000      -0.038404263150      -0.005775852470       0.038358378126
10 2       5.442980000000       1.131930000000      22.157040000000      -0.097489269396       0.077572941348       0.042259889336
11 2       3.177730000000       7.335650000000      11.643550000000      -0.088531652598      -0.031920837657      -0.007692286885
12 2       7.507430000000       3.235870000000      20.032360000000       0.119400319790      -0.301474745705      -0.019852634237
13 2       1.032740000000       5.155620000000      13.634880000000      -0.011504370633       0.142583482766      -0.047057529795
14 2       7.406800000000       3.259750000000       3.239860000000      -0.180700239879      -0.270030217168      -0.027265002540
15 2       5.153480000000       5.386520000000       9.479900000000      -0.044783186479       0.155523614530       0.015213568842
16 2       7.443320000000       7.526350000000      24.368700000000      -0.053047256358      -0.189508872276       0.020115112307
17 2       3.227730000000       7.534200000000      20.145570000000      -0.061844381807      -0.046652155991       0.020106665475
18 2       0.925900000000       1.085500000000       9.633270000000       0.088886879803      -0.002312609647      -0.009799162948
19 2       3.260930000000       7.506810000000       3.139220000000       0.087631082975      -0.043277645750       0.001180698182
20 2       1.192720000000       1.042600000000      18.018200000000      -0.128910393950       0.045973826222       0.024811694617
21 2       3.981140000000       0.187380000000       8.477310000000       0.204209186768      -0.196107686142       0.004422869756
22 2       6.204090000000       6.185110000000      12.677300000000       0.047452601154      -0.034462783397      -0.038323672412
23 2       2.184390000000       2.151110000000      21.182740000000       0.058084146280      -0.045093686325       0.076558138594
24 2       6.480230000000       6.373610000000      21.144380000000       0.027300044605      -0.128177577591       0.062744377253
25 2       1.988520000000       6.477020000000       8.379900000000      -0.055539196083       0.029719998823       0.035531944719
26 2       8.411050000000       2.088820000000       6.311190000000       0.264932229688       0.150117502218      -0.259444695808
27 2       2.016810000000       2.122170000000       4.269970000000      -0.149726276160       0.233948980728       0.085945500211
28 2       0.060120000000       2.038130000000      14.789390000000       0.029263802883       0.129626334209       0.069441760805
29 2       0.161230000000       6.278930000000      19.003520000000      -0.021269223229      -0.124791126147      -0.131663921684
30 2       6.341020000000       0.055000000000       2.125550000000       0.013087559288      -0.024254812477      -0.007021321648
31 2       6.162410000000       0.071940000000      10.644560000000       0.058204378077      -0.048320105181       0.063181330220
32 2       4.214960000000       2.221140000000      19.003530000000       0.113061425149      -0.091746970481      -0.148255289539
33 2       6.482870000000       8.438770000000      19.062520000000       0.103616952152       0.090885887134      -0.079895778750
34 2       6.428530000000       2.063490000000      16.911430000000       0.006020727674       0.007731376550       0.181756531263
35 2       0.163390000000       2.083690000000      23.342440000000      -0.081896543939       0.131199381215       0.144150992804
36 2       2.063350000000       8.256170000000      14.908240000000      -0.077297192205       0.019168587034      -0.098567465843
37 2       4.053780000000       6.099810000000      14.824240000000       0.187567148495       0.154260501650       0.114994702426
38 2       6.304320000000       4.248040000000       6.384240000000      -0.035772212325      -0.018855951159      -0.189873618947
39 2       4.261280000000       6.451110000000      23.323310000000      -0.104292851972      -0.156384980374       0.202052286743
40 2       0.097950000000       4.233550000000      16.925780000000      -0.100650614398       0.049741845201       0.273251277618
41 2       2.109310000000       4.287600000000       2.115530000000       0.003223445585      -0.024623357364      -0.003091770379
42 2       4.172280000000       4.359020000000      21.111600000000       0.015799680057      -0.071706995597       0.050077621569
43 2       4.183860000000       8.276280000000      16.994360000000       0.095549358665       0.082484482392       0.145679412125
44 2       6.388280000000       4.284910000000      23.222900000000       0.045664741829      -0.062986005387       0.096752892011
45 2       8.404990000000       6.289820000000      10.556460000000       0.005642448132       0.038280934998       0.166120600517
46 2       8.453100000000       8.388550000000      12.730210000000       0.031635626000      -0.103438592591      -0.209429843960
47 2       0.019110000000       4.328700000000       0.046610000000      -0.080340320202       0.052500958635      -0.129060982399
48 2       6.280630000000       4.107880000000      14.787230000000       0.133724713205       0.038387142536      -0.058311584835
49 2       4.196490000000       4.235060000000       4.186950000000       0.086199440860      -0.047745085673       0.141470688892
50 2       2.145680000000       2.056180000000      12.630760000000      -0.160108874073       0.257018309394      -0.157354807779
51 2       2.113490000000       4.163900000000      10.601780000000      -0.199924780894      -0.205840221247       0.091272572110
52 2       0.039380000000       6.511820000000       2.218660000000       0.040124753068       0.033084659652      -0.082435368657
53 2       0.204890000000       8.427500000000      21.267870000000      -0.029495774279      -0.136134592615      -0.139434849334
54 2       4.167320000000       2.052110000000       2.008420000000      -0.063550824494      -0.010260068491       0.044265970659
55 2       6.274950000000       2.070070000000      25.352440000000       0.079356425562       0.085877015302      -0.129242604825
56 2       8.449410000000       4.177220000000       8.465710000000      -0.076965583855       0.085337094599      -0.012817897726
57 2       6.148160000000       2.184880000000       8.567270000000      -0.059668481102       0.065684376487      -0.099219773783
58 2       4.067820000000       6.493820000000       6.294350000000       0.072212556215      -0.075792458722      -0.098827936189
59 2       6.406970000000       6.499830000000       4.291340000000      -0.071636258070      -0.098272170363       0.115464960979
60 2       2.205040000000       6.453140000000      25.373410000000       0.169208524625      -0.215630719394      -0.139288994569
61 2       5.213010000000       3.152180000000      11.683440000000      -0.082438743370      -0.073206263537       0.002505504591
62 2       3.213450000000       1.077280000000      24.318570000000       0.061941335380      -0.043484045228       0.002467379856
63 2       3.196340000000       5.230500000000      17.985080000000      -0.091824834096       0.061817141186       0.006469272545
64 2       0.998670000000       7.487290000000       5.289090000000       0.005196566473       0.040255881921       0.010423970154
65 1       2.145630000000       2.160830000000       2.139320000000       0.056144539304       0.059625350066      -0.070847357034
66 1       6.224130000000       6.295470000000       6.311760000000       0.040172663416       0.031517123890       0.013212188670
67 1       4.319960000000       8.390750000000       6.500880000000      -0.021376917714       0.104043904738       0.011850784238
68 1       4.357530000000       0.130830000000       2.133240000000       0.122714070554      -0.038378214768      -0.007840865770
69 1       8.339660000000       6.463110000000       4.157770000000       0.057435493403      -0.035396254345       0.080156666376
70 1       0.037600000000       2.232120000000       4.325290000000       0.140786927757       0.002922239202       0.170172572919
71 1       6.251720000000       4.203090000000       8.439110000000       0.255564698847      -0.079447215683       0.079111569170
72 1       1.908490000000       4.504990000000       0.253200000000       0.017905679517       0.188952726382      -0.039553545670
73 1       8.453270000000       4.403660000000       2.104190000000       0.165692981139       0.058804186350       0.001976201033
74 1       8.184210000000       4.043360000000       6.605580000000       0.006773465123      -0.167934395018      -0.036410434976
75 1       4.341520000000       2.099260000000       0.065600000000      -0.076922478806       0.018884839203      -0.037307923143
76 1       4.059560000000       6.442330000000       8.332570000000       0.013171123373       0.138704662580      -0.075200025309
77 1       2.131670000000       0.079490000000       4.218920000000       0.015043913716      -0.072636643397      -0.039066131944
78 1       6.202380000000       8.406970000000       4.131720000000      -0.000275705761       0.084714886004      -0.069570901042
79 1       2.130820000000       6.492810000000       6.434100000000      -0.068031653346      -0.002932502422      -0.059037867589
80 1       6.290260000000       2.139800000000       2.053530000000       0.056970530592       0.066093818143       0.068679343648
81 1       4.232800000000       4.164110000000       2.124890000000      -0.180189019936      -0.081250598193       0.018081548620
82 1       4.265970000000       4.375740000000       6.232140000000      -0.132735509862       0.018289302197       0.061191139628
83 1       8.269290000000       2.122860000000       8.460740000000      -0.048151327888       0.046911076289       0.002210268553
84 1       0.040530000000       6.374270000000       0.083470000000       0.120762185207       0.028307154036      -0.044384731352
85 1       8.326540000000       0.066330000000       6.371690000000       0.013381644882      -0.021794606198       0.014657814029
86 1       8.326720000000       8.436780000000       2.099760000000      -0.130153708959       0.042717006727       0.014909609166
87 1       4.281980000000       6.297320000000       4.285220000000      -0.098076806472       0.083078365095       0.019804094405
88 1       4.168300000000       2.189960000000       4.158590000000      -0.069276952359      -0.044785465403       0.025554355296
89 1       6.322110000000       2.181890000000       6.416210000000      -0.027679900076      -0.064584068073      -0.008020321434
90 1       2.074580000000       6.410220000000       2.090650000000      -0.005195968358      -0.051623208207       0.103372049959
91 1       2.308390000000       4.071140000000       3.976040000000      -0.012847623392      -0.210161561739       0.058009247260
92 1       6.225870000000       4.368610000000       4.321980000000       0.090692092232       0.079935391338      -0.077327312925
93 1       6.469170000000       0.159550000000       0.113760000000       0.006272650444      -0.061559465800       0.047564748207
94 1       2.073280000000       8.417570000000       8.646660000000       0.067672064714       0.001353797280      -0.056197245420
95 1       6.390970000000       6.429580000000       2.180670000000      -0.064963114973      -0.055378355672      -0.024923060285
96 1       1.925530000000       2.214990000000       6.223720000000      -0.102075126521       0.018072155567      -0.011169204057
97 1       2.010150000000       2.186730000000      10.671420000000      -0.018309432161       0.085293619411       0.064795378619
98 1       6.273000000000       6.182710000000      14.745990000000      -0.147792904694       0.006618554673       0.034479097721
99 1       4.155620000000       8.282150000000      14.961060000000       0.029416774150      -0.134420611652       0.099230747683
100 1       4.267800000000       8.277210000000      10.445190000000      -0.114558699130       0.030685229164       0.008110246245
101 1       8.319260000000       6.355690000000      12.599610000000       0.028444980959      -0.125833777680       0.035533068938
102 1       0.190290000000       1.795780000000      12.923200000000       0.203572130406      -0.013263944500      -0.004473979849
103 1       6.636140000000       3.928580000000      16.668150000000       0.083897371858      -0.055265986540       0.046118323041
104 1       2.047260000000       4.356910000000       8.471130000000      -0.045610043312       0.048441006976      -0.013365322595
105 1       0.144260000000       4.414420000000      10.326470000000       0.194580569035      -0.000394213581       0.057278259540
106 1       0.012460000000       4.060090000000      14.823730000000      -0.216031801248      -0.149070285314      -0.076266754900
107 1       4.203260000000       2.100290000000       8.286620000000      -0.000376090099      -0.093395294187       0.062026544812
108 1       4.140610000000       6.362210000000      16.806300000000      -0.049556587769      -0.107680675197      -0.121742531879
109 1       2.052960000000       8.426740000000      12.755080000000       0.041315231701       0.006233435893       0.027059221264
110 1       6.402260000000       8.305170000000      12.652100000000       0.004464477163       0.102593530337       0.027495821082
111 1       2.131530000000       6.327230000000      14.635620000000       0.095450573906      -0.006410257830       0.059044778378
112 1       6.161960000000       2.013580000000      10.505990000000       0.004749962900       0.047861061111       0.069561942427
113 1       4.149000000000       4.282090000000      10.592640000000       0.047544989392       0.006905986759      -0.031446771117
114 1       4.325840000000       4.187860000000      14.929630000000       0.002346045428       0.015949953100      -0.010061799076
115 1       0.033320000000       2.051620000000      16.828100000000       0.054046458661       0.074319602957       0.045121430563
116 1       8.430110000000       6.372700000000       8.495940000000       0.073001411921      -0.255073240928      -0.059369199054
117 1       0.047630000000       8.340170000000      14.821940000000       0.171681509186       0.123146577950       0.012695026092
118 1       8.278100000000       8.336320000000      10.689920000000      -0.009841078330       0.138680546574      -0.037169054601
119 1       4.307940000000       6.437220000000      12.853970000000      -0.109774572295      -0.013169529892       0.027635372614
120 1       4.200070000000       1.967910000000      12.752650000000       0.075163816700       0.018098211473       0.008033244077
121 1       6.443850000000       1.980950000000      14.847760000000       0.028838175213       0.124318877804      -0.045273957021
122 1       2.016180000000       6.268630000000      10.519420000000       0.064361216302       0.005147509967       0.025235168057
123 1       2.048480000000       4.039490000000      12.559810000000      -0.025971929841      -0.110812696105       0.006211026121
124 1       6.248430000000       4.250850000000      12.827890000000       0.022975040920      -0.082947425404      -0.064708994476
125 1       6.182310000000       0.110410000000       8.606730000000      -0.123961244740      -0.029983258927       0.073248347765
126 1       2.257670000000       0.066510000000      16.834770000000      -0.052641994282      -0.022349686382      -0.004447398631
127 1       6.360930000000       6.383220000000      10.633920000000      -0.011759696925      -0.033054808196      -0.039953087572
128 1       2.122380000000       1.903000000000      14.736770000000      -0.027944368653      -0.037458075185      -0.033255783005
129 1       2.300970000000       2.010440000000      19.171300000000      -0.047027180749      -0.027349740078       0.000002206971
130 1       6.403600000000       6.382620000000      23.188190000000      -0.042817198369       0.081832427160       0.083021853182
131 1       4.370280000000       0.039810000000      23.236000000000       0.002154658953       0.072162483342       0.028638405585
132 1       4.420360000000       0.066030000000      18.982800000000      -0.090163069562      -0.035081343984      -0.049004300898
133 1       0.116570000000       6.416810000000      21.202440000000       0.091737256707       0.157923891451      -0.051353583984
134 1       0.117290000000       2.099140000000      21.228490000000      -0.044584139340       0.030317930223      -0.004357504504
135 1       6.464140000000       4.200940000000      25.303780000000      -0.070227582194      -0.082146347231       0.074200295428
136 1       2.128580000000       4.083410000000      16.917090000000       0.094357138775      -0.018313506209       0.041971093862
137 1       0.043630000000       4.303480000000      18.907010000000      -0.014684177351       0.130954746576      -0.101571778367
138 1       8.427820000000       4.186990000000      23.391260000000       0.126389908605      -0.003573793951      -0.005261896308
139 1       4.390820000000       1.966980000000      17.010610000000      -0.089573370736       0.045391142611       0.028925343322
140 1       4.192400000000       6.332270000000      25.298300000000      -0.180294073383      -0.008618864546      -0.086579806451
141 1       2.112880000000       0.145260000000      21.149010000000       0.015882077867       0.106713683116       0.027340178298
142 1       6.550840000000       0.021070000000      21.093620000000       0.081208418595      -0.120615464882      -0.147105787287
143 1       2.287490000000       6.355040000000      23.417570000000       0.028841063777      -0.013349661497      -0.057574251203
144 1       6.366280000000       2.019480000000      18.965210000000      -0.096016853286       0.174632804877       0.080725974722
145 1       4.231610000000       4.158010000000      19.164880000000       0.025916338722       0.055768118164      -0.097009246221
146 1       4.529240000000       4.522500000000      22.997860000000       0.007868886769       0.136394871506       0.054950467597
147 1       8.402810000000       2.267710000000      25.352920000000       0.112180703806      -0.099376793048      -0.024489345838
148 1       0.005870000000       6.194970000000      17.027170000000       0.011612461141      -0.007206844217       0.094094183684
149 1       8.373660000000       0.166270000000      23.183130000000       0.007501024237      -0.049738645825       0.010476330076
150 1       0.059190000000       8.432930000000      19.128200000000       0.016478858830      -0.119214789162      -0.015652139001
151 1       4.397860000000       6.422250000000      21.183300000000      -0.018017551293       0.014743134226      -0.058612078786
152 1       4.292780000000       2.223980000000      21.064040000000       0.059555916273       0.055744433851       0.050396754543
153 1       6.477250000000       2.269120000000      23.334410000000      -0.010061233699       0.024433292958      -0.026652110584
154 1       2.173840000000       6.383170000000      19.084710000000      -0.010826788577       0.019049676454      -0.028095524400
155 1       2.249470000000       4.127720000000      21.274880000000       0.093076354698      -0.123926436295      -0.013519842691
156 1       6.454350000000       4.346640000000      21.182210000000      -0.309149677132       0.131451479643      -0.015655010019
157 1       6.311980000000       0.004780000000      17.011270000000      -0.045404665844      -0.125801918227      -0.058444030635
158 1       2.095730000000       0.017490000000       0.015070000000      -0.035405117898       0.062876397876       0.028233517995
159 1       6.694180000000       6.557710000000      19.276640000000       0.130347167038       0.015149595590       0.009417105476
160 1       2.074720000000       2.065920000000      23.187380000000       0.038251701620      -0.023079347635      -0.051803345550
