ITEM: TIMESTEP
0
ITEM: NUMBER OF ATOMS
160
ITEM: BOX BOUNDS pp pp pp
0.0000000000000000e+00 8.4669419730000008e+00
0.0000000000000000e+00 8.4669419730000008e+00
0.0000000000000000e+00 2.5400825916999999e+01
ITEM: ATOMS id type c_pe_atom
1 2      -4.787654776157
2 2      -4.610113100375
3 2      -4.607397155476
4 2      -4.755031374075
5 2      -4.742739028094
6 2      -4.810167170177
7 2      -4.661192805486
8 2      -4.602758023289
9 2      -4.633376370626
10 2      -4.609541247443
11 2      -4.588272789594
12 2      -4.741586392809
13 2      -4.792081391467
14 2      -4.732829671577
15 2      -4.603981558729
16 2      -4.620028651470
17 2      -4.674691690071
18 2      -4.801662480083
19 2      -4.660652467500
20 2      -4.619585009757
21 2      -5.116867646935
22 2      -5.071666956990
23 2      -5.257255302537
24 2      -4.924255033738
25 2      -5.065968609041
26 2      -5.358067070704
27 2      -5.332150034789
28 2      -4.885676040853
29 2      -5.318611288097
30 2      -5.186885738201
31 2      -5.060694085835
32 2      -5.048844513867
33 2      -5.027211652411
34 2      -4.987565268282
35 2      -5.020910821509
36 2      -4.947521879056
37 2      -5.187991845521
38 2      -5.006723311131
39 2      -5.322991814622
40 2      -5.339034185541
41 2      -5.057392558701
42 2      -5.144844503488
43 2      -5.064432068492
44 2      -5.024070422227
45 2      -4.993865697080
46 2      -4.971900950918
47 2      -5.043955690867
48 2      -5.196499003627
49 2      -5.042191071686
50 2      -5.341235175518
51 2      -5.356615558565
52 2      -5.026974916785
53 2      -4.937304243638
54 2      -5.027781301726
55 2      -5.024969933525
56 2      -5.006588320230
57 2      -5.065411054509
58 2      -5.058387158336
59 2      -5.018343302756
60 2      -5.326249300356
61 2      -4.984217829990
62 2      -4.941031952638
63 2      -4.942661469825
64 2      -4.960227212712
65 1     -10.892724768602
66 1     -10.954063323057
67 1     -10.869538969239
68 1     -10.901118469539
69 1     -10.871730236672
70 1     -10.736576469927
71 1     -10.877290274345
72 1     -10.588939160851
73 1     -10.833825442283
74 1     -10.580302430131
75 1     -10.840993057308
76 1     -10.817558552912
77 1     -11.032293750063
78 1     -10.848469602612
79 1     -10.847497986364
80 1     -10.770967495301
81 1     -10.826560722491
82 1     -10.922599136337
83 1     -10.814155001797
84 1     -10.853473764170
85 1     -11.060461369821
86 1     -10.904493990461
87 1     -10.928662531110
88 1     -10.840980852704
89 1     -10.839371992251
90 1     -10.889388892274
91 1     -10.588207715772
92 1     -10.934390591691
93 1     -10.848038409851
94 1     -10.906561911231
95 1     -10.767287833679
96 1     -10.745446707798
97 1     -10.741747859236
98 1     -10.738437493456
99 1     -10.839949885187
100 1     -10.850383442117
101 1     -10.918894319376
102 1     -10.578175232362
103 1     -10.541454830692
104 1     -10.833953951523
105 1     -10.585046983797
106 1     -10.844826368223
107 1     -10.887625248685
108 1     -10.806922067690
109 1     -10.863458221649
110 1     -10.970937865229
111 1     -10.913119445545
112 1     -10.842651337790
113 1     -11.046065014924
114 1     -10.910559561900
115 1     -10.877407664727
116 1     -10.862267977732
117 1     -10.878270768971
118 1     -10.921407990685
119 1     -10.871855615729
120 1     -11.044239425680
121 1     -10.855607025516
122 1     -10.848522826041
123 1     -10.753191940068
124 1     -10.848325766665
125 1     -10.826594428485
126 1     -10.937659768039
127 1     -10.941197778727
128 1     -10.914479144973
129 1     -10.852191549244
130 1     -10.869705854075
131 1     -11.024733502465
132 1     -10.940868473813
133 1     -10.861550085442
134 1     -10.770983301257
135 1     -10.923597721426
136 1     -11.015374494579
137 1     -10.749606821804
138 1     -10.914116834023
139 1     -10.952079758916
140 1     -10.746347374555
141 1     -10.891756153219
142 1     -10.905454726325
143 1     -10.766627529595
144 1     -10.898982997470
145 1     -10.855128020118
146 1     -10.537876583016
147 1     -10.927250348755
148 1     -10.773851644241
149 1     -10.969026699846
150 1     -10.850311081057
151 1     -10.870580592791
152 1     -10.801303697680
153 1     -10.969745639719
154 1     -11.037362908075
155 1     -10.808954222308
156 1     -10.813983801251
157 1     -10.917494626557
158 1     -11.031076042308
159 1     -10.586518929987
160 1     -10.781367442815
