160
Config_type=bulk_gamma_phase Weight=1.0 Lattice="8.466941973 0.000000000 0.000000000 0.000000000 8.466941973 0.000000000 0.000000000 0.000000000 25.400825917" Energy=-1359.92201120 Virial="-53.19485 -0.00892 -19.73422 -0.00892 -53.91435 -2.34860 -19.73422 -2.34860 -50.91594" pbc="T T T" Properties=species:S:1:pos:R:3:forces:R:3
Ga	      1.22709      5.25619     22.34310         0.011751      0.009466      0.000006
Ga	      5.26150      0.85616     13.82546        -0.002740      0.000239     -0.015950
Ga	      7.24000      7.48699      7.46954         0.011246     -0.001937     -0.007160
Ga	      7.36960      7.21390     15.94387         0.009190     -0.009707      0.015401
Ga	      5.28554      5.30436      0.99238        -0.002372     -0.011700     -0.007640
Ga	      3.06462      3.23865      7.28766         0.001072      0.008431      0.006358
Ga	      0.96486      1.05812      1.09652        -0.002654     -0.003232     -0.014477
Ga	      5.22810      1.03687      5.29974         0.005109      0.007727      0.009419
Ga	      3.21867      3.00142     15.83366        -0.005325      0.008394      0.009162
Ga	      5.44298      1.13193     22.15704        -0.013810     -0.001716     -0.002046
Ga	      3.17773      7.33565     11.64355        -0.000923     -0.016140      0.001348
Ga	      7.50743      3.23587     20.03236        -0.004195     -0.001815     -0.005098
Ga	      1.03274      5.15562     13.63488        -0.005582     -0.013762      0.001522
Ga	      7.40680      3.25975      3.23986         0.003704      0.013063      0.015339
Ga	      5.15348      5.38652      9.47990         0.011502      0.008885     -0.011386
Ga	      7.44332      7.52635     24.36870        -0.001441      0.014339      0.008189
Ga	      3.22773      7.53420     20.14557         0.003274     -0.005235      0.013970
Ga	      0.92590      1.08550      9.63327         0.008070      0.011584     -0.012465
Ga	      3.26093      7.50681      3.13922        -0.004030      0.016194     -0.001997
Ga	      1.19272      1.04260     18.01820         0.030694     -0.008185     -0.009197
Ga	      3.98114      0.18738      8.47731         0.007666     -0.024933     -0.005581
Ga	      6.20409      6.18511     12.67730        -0.027356     -0.012648      0.025108
Ga	      2.18439      2.15111     21.18274        -0.002011     -0.022275     -0.001510
Ga	      6.48023      6.37361     21.14438         0.021403     -0.002467      0.015221
Ga	      1.98852      6.47702      8.37990        -0.009751      0.009022      0.000842
Ga	      8.41105      2.08882      6.31119         0.014566      0.008278     -0.004098
Ga	      2.01681      2.12217      4.26997         0.004183      0.006240     -0.019350
Ga	      0.06012      2.03813     14.78939        -0.008414     -0.010612     -0.002972
Ga	      0.16123      6.27893     19.00352        -0.008846     -0.009397     -0.000224
Ga	      6.34102      0.05500      2.12555         0.001083     -0.018864     -0.000267
Ga	      6.16241      0.07194     10.64456         0.007343     -0.006874      0.000427
Ga	      4.21496      2.22114     19.00353        -0.004621     -0.004218      0.009171
Ga	      6.48287      8.43877     19.06252         0.026350      0.027145      0.001634
Ga	      6.42853      2.06349     16.91143        -0.007046      0.011607     -0.014212
Ga	      0.16339      2.08369     23.34244         0.006795      0.022400     -0.010243
Ga	      2.06335      8.25617     14.90824         0.004678      0.006122      0.000766
Ga	      4.05378      6.09981     14.82424         0.015624     -0.003555     -0.008459
Ga	      6.30432      4.24804      6.38424         0.020414      0.005262     -0.013205
Ga	      4.26128      6.45111     23.32331        -0.006772     -0.001480     -0.004294
Ga	      0.09795      4.23355     16.92578        -0.015171     -0.009146      0.032475
Ga	      2.10931      4.28760      2.11553         0.001151     -0.016654     -0.006915
Ga	      4.17228      4.35902     21.11160         0.004143      0.006177      0.011468
Ga	      4.18386      8.27628     16.99436         0.005335      0.007899     -0.004195
Ga	      6.38828      4.28491     23.22290        -0.002459      0.009299     -0.009376
Ga	      8.40499      6.28982     10.55646         0.008563      0.008229     -0.023986
Ga	      8.45310      8.38855     12.73021         0.008751      0.001324     -0.004807
Ga	      0.01911      4.32870      0.04661        -0.005354      0.007010     -0.004563
Ga	      6.28063      4.10788     14.78723        -0.002136     -0.017959     -0.002630
Ga	      4.19649      4.23506      4.18695         0.024140     -0.002573      0.004338
Ga	      2.14568      2.05618     12.63076         0.005155      0.011203      0.005875
Ga	      2.11349      4.16390     10.60178        -0.013506      0.007277     -0.017205
Ga	      0.03938      6.51182      2.21866        -0.003110      0.008664      0.001784
Ga	      0.20489      8.42750     21.26787         0.005647      0.001806     -0.005964
Ga	      4.16732      2.05211      2.00842         0.014054      0.004896     -0.015990
Ga	      6.27495      2.07007     25.35244         0.002994      0.001188      0.004078
Ga	      8.44941      4.17722      8.46571        -0.003289      0.021195     -0.001813
Ga	      6.14816      2.18488      8.56727        -0.015136     -0.005251     -0.001394
Ga	      4.06782      6.49382      6.29435        -0.005807      0.019435      0.011971
Ga	      6.40697      6.49983      4.29134         0.001112     -0.018705     -0.008576
Ga	      2.20504      6.45314     25.37341        -0.002602     -0.001056     -0.016593
Ga	      5.21301      3.15218     11.68344        -0.001380     -0.017475      0.003737
Ga	      3.21345      1.07728     24.31857        -0.020887     -0.010201      0.017144
Ga	      3.19634      5.23050     17.98508        -0.027053      0.009219     -0.005749
Ga	      0.99867      7.48729      5.28909         0.001255      0.002027      0.003925
O	      2.14563      2.16083      2.13932        -0.004215     -0.000753      0.002633
O	      6.22413      6.29547      6.31176         0.001460     -0.001283     -0.006530
O	      4.31996      8.39075      6.50088         0.011190     -0.007113     -0.000782
O	      4.35753      0.13083      2.13324        -0.003881     -0.002712      0.000307
O	      8.33966      6.46311      4.15777        -0.003658      0.000237      0.000961
O	      0.03760      2.23212      4.32529         0.000313     -0.002999     -0.003853
O	      6.25172      4.20309      8.43911        -0.003524     -0.001437      0.009204
O	      1.90849      4.50499      0.25320         0.000977     -0.008711      0.008001
O	      8.45327      4.40366      2.10419        -0.006708     -0.002572     -0.005153
O	      8.18421      4.04336      6.60558        -0.000886      0.005960      0.001820
O	      4.34152      2.09926      0.06560        -0.000107     -0.005397      0.001055
O	      4.05956      6.44233      8.33257         0.003492     -0.003752     -0.005404
O	      2.13167      0.07949      4.21892         0.000054     -0.001337      0.002915
O	      6.20238      8.40697      4.13172        -0.004857     -0.005142      0.004143
O	      2.13082      6.49281      6.43410        -0.001573      0.014107     -0.010085
O	      6.29026      2.13980      2.05353         0.002500     -0.007730      0.002872
O	      4.23280      4.16411      2.12489        -0.003517     -0.003198      0.004635
O	      4.26597      4.37574      6.23214        -0.004523     -0.005246      0.000546
O	      8.26929      2.12286      8.46074        -0.009588      0.007069     -0.000930
O	      0.04053      6.37427      0.08347         0.001630     -0.010556     -0.004067
O	      8.32654      0.06633      6.37169        -0.002927      0.004429      0.001039
O	      8.32672      8.43678      2.09976         0.006400      0.004123     -0.006022
O	      4.28198      6.29732      4.28522        -0.002017     -0.003439     -0.002350
O	      4.16830      2.18996      4.15859        -0.002177      0.001857     -0.004337
O	      6.32211      2.18189      6.41621         0.007363      0.001525     -0.009925
O	      2.07458      6.41022      2.09065        -0.001814      0.000324      0.005351
O	      2.30839      4.07114      3.97604        -0.001893     -0.003765      0.000734
O	      6.22587      4.36861      4.32198         0.001266     -0.003611     -0.001502
O	      6.46917      0.15955      0.11376        -0.001656      0.005771      0.001088
O	      2.07328      8.41757      8.64666        -0.001515     -0.005942      0.011528
O	      6.39097      6.42958      2.18067        -0.001021      0.006107      0.001741
O	      1.92553      2.21499      6.22372         0.000006      0.004396      0.004458
O	      2.01015      2.18673     10.67142        -0.004865      0.011446     -0.004105
O	      6.27300      6.18271     14.74599         0.005149     -0.005034      0.002443
O	      4.15562      8.28215     14.96106         0.002348      0.006147      0.004256
O	      4.26780      8.27721     10.44519         0.008182     -0.006446      0.006299
O	      8.31926      6.35569     12.59961        -0.002900     -0.004561      0.002029
O	      0.19029      1.79578     12.92320        -0.012467     -0.002566      0.017655
O	      6.63614      3.92858     16.66815        -0.001435     -0.008507     -0.002003
O	      2.04726      4.35691      8.47113        -0.005179     -0.003953     -0.002230
O	      0.14426      4.41442     10.32647         0.000140      0.004686      0.000918
O	      0.01246      4.06009     14.82373         0.008672      0.003740      0.005410
O	      4.20326      2.10029      8.28662        -0.014950     -0.010650     -0.005449
O	      4.14061      6.36221     16.80630        -0.009877      0.004405      0.010110
O	      2.05296      8.42674     12.75508        -0.002216     -0.002073      0.001590
O	      6.40226      8.30517     12.65210         0.006582      0.000175     -0.004881
O	      2.13153      6.32723     14.63562         0.015290     -0.017351     -0.005798
O	      6.16196      2.01358     10.50599        -0.010246      0.000583      0.004769
O	      4.14900      4.28209     10.59264         0.001014     -0.000607      0.008230
O	      4.32584      4.18786     14.92963         0.001300      0.002359      0.006654
O	      0.03332      2.05162     16.82810        -0.004757     -0.003677      0.001793
O	      8.43011      6.37270      8.49594        -0.001065      0.006234     -0.002161
O	      0.04763      8.34017     14.82194         0.012657      0.003734      0.000424
O	      8.27810      8.33632     10.68992         0.006141      0.000692      0.003482
O	      4.30794      6.43722     12.85397         0.005289      0.005568      0.002121
O	      4.20007      1.96791     12.75265        -0.006851     -0.002631      0.004870
O	      6.44385      1.98095     14.84776        -0.000622     -0.000487      0.001409
O	      2.01618      6.26863     10.51942         0.002779     -0.003648     -0.002100
O	      2.04848      4.03949     12.55981        -0.009875      0.011539     -0.004597
O	      6.24843      4.25085     12.82789        -0.011298     -0.005130     -0.004461
O	      6.18231      0.11041      8.60673         0.000650     -0.009861      0.000991
O	      2.25767      0.06651     16.83477        -0.000998      0.008838      0.009736
O	      6.36093      6.38322     10.63392         0.000364     -0.006042      0.013302
O	      2.12238      1.90300     14.73677        -0.000134      0.012222      0.004626
O	      2.30097      2.01044     19.17130         0.000624     -0.003321     -0.001450
O	      6.40360      6.38262     23.18819         0.008083      0.000882     -0.000375
O	      4.37028      0.03981     23.23600        -0.000138     -0.001007      0.005066
O	      4.42036      0.06603     18.98280        -0.009525     -0.001028      0.000123
O	      0.11657      6.41681     21.20244         0.001246      0.000708     -0.001127
O	      0.11729      2.09914     21.22849        -0.002173      0.007586     -0.000265
O	      6.46414      4.20094     25.30378        -0.006845      0.001196      0.007938
O	      2.12858      4.08341     16.91709         0.003827      0.009457     -0.003037
O	      0.04363      4.30348     18.90701         0.000940     -0.003478     -0.007149
O	      8.42782      4.18699     23.39126         0.002704     -0.000154      0.003514
O	      4.39082      1.96698     17.01061         0.001703     -0.006724      0.000813
O	      4.19240      6.33227     25.29830         0.001833      0.004467      0.005012
O	      2.11288      0.14526     21.14901        -0.006855     -0.015717     -0.003326
O	      6.55084      0.02107     21.09362        -0.012004      0.002046     -0.003012
O	      2.28749      6.35504     23.41757        -0.002923      0.003050     -0.016343
O	      6.36628      2.01948     18.96521        -0.000663      0.009254     -0.004466
O	      4.23161      4.15801     19.16488        -0.004300      0.003435     -0.012651
O	      4.52924      4.52250     22.99786         0.009464      0.000729      0.000379
O	      8.40281      2.26771     25.35292         0.009228      0.008068     -0.007502
O	      0.00587      6.19497     17.02717        -0.009124     -0.007124     -0.001843
O	      8.37366      0.16627     23.18313        -0.007790     -0.001855      0.002004
O	      0.05919      8.43293     19.12820         0.003394     -0.000613     -0.004176
O	      4.39786      6.42225     21.18330         0.001985      0.005067     -0.003945
O	      4.29278      2.22398     21.06404        -0.003916     -0.001795      0.003822
O	      6.47725      2.26912     23.33441        -0.003567      0.003885      0.003822
O	      2.17384      6.38317     19.08471        -0.002185      0.004551      0.007881
O	      2.24947      4.12772     21.27488         0.011808      0.002063      0.003646
O	      6.45435      4.34664     21.18221        -0.005128      0.002316     -0.008745
O	      6.31198      0.00478     17.01127         0.009074     -0.006648     -0.000367
O	      2.09573      0.01749      0.01507        -0.014113      0.006585      0.007253
O	      6.69418      6.55771     19.27664         0.004228      0.002157      0.014013
O	      2.07472      2.06592     23.18738        -0.002546     -0.017862      0.005983
