ITEM: TIMESTEP
0
ITEM: NUMBER OF ATOMS
20
ITEM: BOX BOUNDS xy xz yz pp pp pp
-1.3680182642520000e+00 1.2261079958731001e+01 0.0000000000000000e+00
0.0000000000000000e+00 3.0363493980000000e+00 -1.3680182642520000e+00
0.0000000000000000e+00 5.6212445083949998e+00 0.0000000000000000e+00
ITEM: ATOMS id type x y z fx fy fz
1 2       1.521705227930       1.518170000000       1.762636313648       0.084509886433       0.000059447037      -0.097555992106
2 2       3.240817656392       0.000000000000       3.858605545079      -0.084646003916      -0.000059446986       0.097600162538
3 2       0.025968329046       0.000000000000       4.472767061751      -0.011198344353      -0.000074475504      -0.011267582749
4 2       4.736554555277       1.518170000000       1.148474796976       0.011102258371       0.000074478366       0.011374136355
5 2       7.652245313836       0.000000000000       1.762638030531       0.084569119751      -0.000059446941      -0.097614270858
6 2       9.371357742298       1.518170000000       3.858607261962      -0.084649372546       0.000059446972       0.097625346990
7 2       6.156498698549       1.518170000000       4.472766413995      -0.011018084405       0.000074478281      -0.011300577243
8 2      10.867094641182       0.000000000000       1.148476513859       0.011096509306      -0.000074478431       0.011358924533
9 1       5.743171711709       0.000000000000       1.428011030184      -0.100602715891      -0.000090067991       0.035021299717
10 1      -0.980658543789       1.518170000000       4.193228463904       0.100805027444       0.000090065105      -0.034954596438
11 1       1.345926856624       0.000000000000       3.152672114115       0.020689529646      -0.000025533387       0.129405829420
12 1       3.416586311296       1.518170000000       2.468567379972      -0.020630902891       0.000025533586      -0.129348156382
13 1       2.842485025131       1.518170000000       5.011026596897      -0.037936045691       0.000064269321       0.081964441688
14 1       1.920035494552       0.000000000000       0.610224978233       0.037906742634      -0.000064269364      -0.082234131449
15 1      11.873711797615       1.518170000000       1.428012747067      -0.100597954944       0.000090068169       0.035019726305
16 1       5.149881542117       0.000000000000       4.193230180787       0.100676676084      -0.000090068006      -0.035005464455
17 1       7.476466942530       1.518170000000       3.152673830998       0.020631299880       0.000025533366       0.129382997185
18 1       9.547126397202       0.000000000000       2.468569096856      -0.020646198470      -0.000025533549      -0.129369406480
19 1       8.973025111037       0.000000000000       5.011028313780      -0.037924145538      -0.000064269318       0.081960068185
20 1       8.050577945097       1.518170000000       0.610216978713       0.037862719097       0.000064269274      -0.082062754756
