ITEM: TIMESTEP
0
ITEM: NUMBER OF ATOMS
80
ITEM: BOX BOUNDS pp pp pp
0.0000000000000000e+00 9.3168351089999994e+00
0.0000000000000000e+00 9.3168351089999994e+00
0.0000000000000000e+00 9.3168351089999994e+00
ITEM: ATOMS id type c_pe_atom
1 2      -5.128916160516
2 2      -5.027889438186
3 2      -5.027883014189
4 2      -5.027892096752
5 2      -5.027883014189
6 2      -5.027890807940
7 2      -5.027892096752
8 2      -5.128916160516
9 2      -5.128919998778
10 2      -5.128916160516
11 2      -5.027890807940
12 2      -5.027892096752
13 2      -5.027889438186
14 2      -5.027890807940
15 2      -5.027889438186
16 2      -5.027883014189
17 2      -5.128912322202
18 2      -5.027887189855
19 2      -5.027894344979
20 2      -5.027884531448
21 2      -5.027894344979
22 2      -5.027886551511
23 2      -5.027884531448
24 2      -5.128912322202
25 2      -5.128908483978
26 2      -5.128912322202
27 2      -5.027886551511
28 2      -5.027884531448
29 2      -5.027887189855
30 2      -5.027886551511
31 2      -5.027887189855
32 2      -5.027894344979
33 1     -10.784528653624
34 1     -10.784524632016
35 1     -10.784524570028
36 1     -10.784521181699
37 1     -10.784510106309
38 1     -10.784516603039
39 1     -10.784524570028
40 1     -10.784510106309
41 1     -10.784516603039
42 1     -10.784522834863
43 1     -10.784524570028
44 1     -10.784528653624
45 1     -10.784516971611
46 1     -10.784510106309
47 1     -10.784524632016
48 1     -10.784521181699
49 1     -10.784522834863
50 1     -10.784516971611
51 1     -10.784522834863
52 1     -10.784524632016
53 1     -10.784528653624
54 1     -10.784516971611
55 1     -10.784521181699
56 1     -10.784516603039
57 1     -10.784522384155
58 1     -10.784534613736
59 1     -10.784521394160
60 1     -10.784522548487
61 1     -10.784523181535
62 1     -10.784518919013
63 1     -10.784521394160
64 1     -10.784523181535
65 1     -10.784518919013
66 1     -10.784538644740
67 1     -10.784521394160
68 1     -10.784522384155
69 1     -10.784531832050
70 1     -10.784523181535
71 1     -10.784534613736
72 1     -10.784522548487
73 1     -10.784538644740
74 1     -10.784531832050
75 1     -10.784538644740
76 1     -10.784534613736
77 1     -10.784522384155
78 1     -10.784531832050
79 1     -10.784522548487
80 1     -10.784518919013
