ITEM: TIMESTEP
0
ITEM: NUMBER OF ATOMS
80
ITEM: BOX BOUNDS pp pp pp
0.0000000000000000e+00 9.3168351089999994e+00
0.0000000000000000e+00 9.3168351089999994e+00
0.0000000000000000e+00 9.3168351089999994e+00
ITEM: ATOMS id type x y z fx fy fz
1 2       6.987630000000       2.329210000000       2.329210000000      -0.000005307990       0.000019196213       0.000030202877
2 2       6.987630000000       4.327650000000       4.658420000000      -0.000063268829      -0.022150205553      -0.000057456961
3 2       0.000000000000       6.987630000000       0.330770000000       0.000003482349      -0.000053840009       0.022130902260
4 2       0.000000000000       2.329210000000       4.327650000000       0.000022034528      -0.000013069182      -0.022139255456
5 2       0.330770000000       0.000000000000       6.987630000000       0.022130902260       0.000003482349      -0.000053840009
6 2       0.330770000000       4.658420000000       2.329210000000       0.022083246388      -0.000038902737      -0.000003639849
7 2       2.329210000000       4.327650000000       0.000000000000      -0.000013069182      -0.022139255456       0.000022034528
8 2       2.329210000000       6.987630000000       2.329210000000       0.000030202877      -0.000005307990       0.000019196213
9 2       2.329210000000       2.329210000000       2.329210000000       0.000029330135       0.000029330135       0.000029330135
10 2       2.329210000000       2.329210000000       6.987630000000       0.000019196213       0.000030202877      -0.000005307990
11 2       2.329210000000       0.330770000000       4.658420000000      -0.000003639849       0.022083246388      -0.000038902737
12 2       4.327650000000       0.000000000000       2.329210000000      -0.022139255456       0.000022034528      -0.000013069182
13 2       4.327650000000       4.658420000000       6.987630000000      -0.022150205553      -0.000057456961      -0.000063268829
14 2       4.658420000000       2.329210000000       0.330770000000      -0.000038902737      -0.000003639849       0.022083246388
15 2       4.658420000000       6.987630000000       4.327650000000      -0.000057456961      -0.000063268829      -0.022150205553
16 2       6.987630000000       0.330770000000       0.000000000000      -0.000053840009       0.022130902260       0.000003482349
17 2       2.329210000000       6.987630000000       6.987630000000       0.000021639121      -0.000004733905      -0.000012427655
18 2       2.329210000000       8.986060000000       0.000000000000       0.000001833778      -0.022023416594       0.000030498562
19 2       4.658420000000       2.329210000000       4.989190000000      -0.000030441711      -0.000007594306       0.022002911493
20 2       4.658420000000       6.987630000000       8.986060000000      -0.000011886518      -0.000059314039      -0.022034365242
21 2       4.989190000000       4.658420000000       2.329210000000       0.022002911493      -0.000030441711      -0.000007594306
22 2       4.989190000000       0.000000000000       6.987630000000       0.022050565635       0.000049052321      -0.000068742186
23 2       6.987630000000       8.986060000000       4.658420000000      -0.000059314039      -0.022034365242      -0.000011886518
24 2       6.987630000000       2.329210000000       6.987630000000      -0.000012427655       0.000021639121      -0.000004733905
25 2       6.987630000000       6.987630000000       6.987630000000      -0.000016312136      -0.000016312136      -0.000016312136
26 2       6.987630000000       6.987630000000       2.329210000000      -0.000004733905      -0.000012427655       0.000021639121
27 2       6.987630000000       4.989190000000       0.000000000000      -0.000068742186       0.022050565635       0.000049052321
28 2       8.986060000000       4.658420000000       6.987630000000      -0.022034365242      -0.000011886518      -0.000059314039
29 2       8.986060000000       0.000000000000       2.329210000000      -0.022023416594       0.000030498562       0.000001833778
30 2       0.000000000000       6.987630000000       4.989190000000       0.000049052321      -0.000068742186       0.022050565635
31 2       0.000000000000       2.329210000000       8.986060000000       0.000030498562       0.000001833778      -0.022023416594
32 2       2.329210000000       4.989190000000       4.658420000000      -0.000007594306       0.022002911493      -0.000030441711
33 1       8.237120000000       5.682590000000       1.469140000000      -0.156612902729       0.077041139036       0.051334693826
34 1       8.237120000000       3.634240000000       3.189280000000      -0.156579660822      -0.077005493260      -0.051411353045
35 1       8.292660000000       1.469140000000       1.079710000000      -0.077025034282       0.051348459291       0.156591107578
36 1       8.292660000000       3.189280000000       5.738130000000      -0.077042318552      -0.051373648068       0.156639409678
37 1       1.024170000000       3.189280000000       1.079710000000       0.077016014784      -0.051370560387       0.156601166331
38 1       1.024170000000       1.469140000000       5.738130000000       0.077045536408       0.051320351805       0.156651898921
39 1       1.079710000000       8.292660000000       1.469140000000       0.156591107578      -0.077025034282       0.051348459291
40 1       1.079710000000       1.024170000000       3.189280000000       0.156601166331       0.077016014784      -0.051370560387
41 1       1.469140000000       5.738130000000       1.024170000000       0.051320351805       0.156651898921       0.077045536408
42 1       1.469140000000       3.578700000000       3.634240000000       0.051392090686      -0.156530860767      -0.076984038124
43 1       1.469140000000       1.079710000000       8.292660000000       0.051348459291       0.156591107578      -0.077025034282
44 1       1.469140000000       8.237120000000       5.682590000000       0.051334693826      -0.156612902729       0.077041139036
45 1       3.189280000000       3.578700000000       5.682590000000      -0.051390828848      -0.156561671476       0.077007447267
46 1       3.189280000000       1.079710000000       1.024170000000      -0.051370560387       0.156601166331       0.077016014784
47 1       3.189280000000       8.237120000000       3.634240000000      -0.051411353045      -0.156579660822      -0.077005493260
48 1       3.189280000000       5.738130000000       8.292660000000      -0.051373648068       0.156639409678      -0.077042318552
49 1       3.578700000000       3.634240000000       1.469140000000      -0.156530860767      -0.076984038124       0.051392090686
50 1       3.578700000000       5.682590000000       3.189280000000      -0.156561671476       0.077007447267      -0.051390828848
51 1       3.634240000000       1.469140000000       3.578700000000      -0.076984038124       0.051392090686      -0.156530860767
52 1       3.634240000000       3.189280000000       8.237120000000      -0.077005493260      -0.051411353045      -0.156579660822
53 1       5.682590000000       1.469140000000       8.237120000000       0.077041139036       0.051334693826      -0.156612902729
54 1       5.682590000000       3.189280000000       3.578700000000       0.077007447267      -0.051390828848      -0.156561671476
55 1       5.738130000000       8.292660000000       3.189280000000       0.156639409678      -0.077042318552      -0.051373648068
56 1       5.738130000000       1.024170000000       1.469140000000       0.156651898921       0.077045536408       0.051320351805
57 1       3.578700000000       1.024170000000       6.127560000000      -0.156562741304       0.077029396467       0.051337993684
58 1       3.578700000000       8.292660000000       7.847690000000      -0.156585999438      -0.077056836064      -0.051343903589
59 1       3.634240000000       6.127560000000       5.738130000000      -0.077038326055       0.051343443703       0.156622438796
60 1       3.634240000000       7.847690000000       1.079710000000      -0.077039458308      -0.051346260592       0.156607449511
61 1       5.682590000000       7.847690000000       5.738130000000       0.077092388984      -0.051294793339       0.156688993801
62 1       5.682590000000       6.127560000000       1.079710000000       0.077044452645       0.051316996844       0.156604950490
63 1       5.738130000000       3.634240000000       6.127560000000       0.156622438796      -0.077038326055       0.051343443703
64 1       5.738130000000       5.682590000000       7.847690000000       0.156688993801       0.077092388984      -0.051294793339
65 1       6.127560000000       1.079710000000       5.682590000000       0.051316996844       0.156604950490       0.077044452645
66 1       6.127560000000       8.237120000000       8.292660000000       0.051335157472      -0.156601486382      -0.077059872404
67 1       6.127560000000       5.738130000000       3.634240000000       0.051343443703       0.156622438796      -0.077038326055
68 1       6.127560000000       3.578700000000       1.024170000000       0.051337993684      -0.156562741304       0.077029396467
69 1       7.847690000000       8.237120000000       1.024170000000      -0.051309866006      -0.156647284123       0.077081505151
70 1       7.847690000000       5.738130000000       5.682590000000      -0.051294793339       0.156688993801       0.077092388984
71 1       7.847690000000       3.578700000000       8.292660000000      -0.051343903589      -0.156585999438      -0.077056836064
72 1       7.847690000000       1.079710000000       3.634240000000      -0.051346260592       0.156607449511      -0.077039458308
73 1       8.237120000000       8.292660000000       6.127560000000      -0.156601486382      -0.077059872404       0.051335157472
74 1       8.237120000000       1.024170000000       7.847690000000      -0.156647284123       0.077081505151      -0.051309866006
75 1       8.292660000000       6.127560000000       8.237120000000      -0.077059872404       0.051335157472      -0.156601486382
76 1       8.292660000000       7.847690000000       3.578700000000      -0.077056836064      -0.051343903589      -0.156585999438
77 1       1.024170000000       6.127560000000       3.578700000000       0.077029396467       0.051337993684      -0.156562741304
78 1       1.024170000000       7.847690000000       8.237120000000       0.077081505151      -0.051309866006      -0.156647284123
79 1       1.079710000000       3.634240000000       7.847690000000       0.156607449511      -0.077039458308      -0.051346260592
80 1       1.079710000000       5.682590000000       6.127560000000       0.156604950490       0.077044452645       0.051316996844
