ITEM: TIMESTEP
0
ITEM: NUMBER OF ATOMS
40
ITEM: BOX BOUNDS pp pp pp
0.0000000000000000e+00 8.7845269320000003e+00
0.0000000000000000e+00 5.1155057939999997e+00
0.0000000000000000e+00 9.3997019389999998e+00
ITEM: ATOMS id type v_vir_xx v_vir_yy v_vir_zz v_vir_xy v_vir_xz v_vir_yz
1 2      -1.578601718507      -2.028851969914      -2.141383706152       0.674995584079       1.055999866212      -1.145239895002
2 2      -1.578616412238      -2.028855481626      -2.141373247373      -0.674956364549      -1.056045932924      -1.145222966327
3 2      -3.310180268535      -3.875888120046      -3.107368929299      -0.542976143724      -0.377143426817       0.685009998650
4 2      -3.310184584326      -3.875863747710      -3.107459129916       0.543024506020       0.377176165431       0.684989501607
5 2      -2.227016697400      -2.318790597670      -1.972204093363      -0.333726115517       0.743250855782      -0.105562252225
6 2      -2.310476544717      -2.841057531774      -3.821934727853       0.392068907487      -0.621737402794      -1.255039650999
7 2      -2.310493719868      -2.841058507062      -3.822018929741      -0.392082483230       0.621707195810      -1.255022377829
8 2      -2.227022926873      -2.318840708551      -1.972153312718       0.333698157775      -0.743277085857      -0.105562290709
9 2      -3.311376806881      -3.875575554185      -3.099711742504       0.541488625313      -0.378075444682      -0.686225245264
10 2      -3.311352067804      -3.875601254488      -3.099800552934      -0.541495592625       0.378057085492      -0.686227220014
11 2      -1.588351246247      -2.037359924003      -2.148770011945      -0.676774556379       1.058883475696       1.138963743680
12 2      -1.588357035338      -2.037337284923      -2.148738628242       0.676817587496      -1.058839759737       1.139002200818
13 2      -2.219368257375      -2.321357110917      -1.973989002578      -0.335125255815      -0.741208704507       0.103027173624
14 2      -2.305554251689      -2.847621392665      -3.828924540495      -0.391825778770      -0.621431967809       1.253590071442
15 2      -2.305576215552      -2.847617227972      -3.828893308117       0.391869009721       0.621437924552       1.253584981635
16 2      -2.219306014783      -2.321338182672      -1.973870076695       0.335114621388       0.741210730286       0.103063321347
17 1       0.763992322778       1.299645238307       0.892173855307       0.323620611930       0.809912801873      -0.779242988999
18 1       0.306675639640       0.905323837606       1.203770564076      -0.376574153456      -0.923456664330      -0.457634089526
19 1       1.468806227093       1.127366979831       0.958427331237      -0.364111615862      -0.477936243434      -0.740162656313
20 1       2.436427875600       2.710065081473       2.883483468668      -0.305809801569      -0.685552649809      -0.936804803151
21 1       0.763963014725       1.299688749407       0.892168589696      -0.323612120866      -0.809878219732      -0.779296427401
22 1       2.208121351537       1.981993074236       2.142247646867      -0.066903289796      -0.131338037295      -0.362562272621
23 1       1.468825224965       1.127414891805       0.958443413814       0.364141600277       0.477926336809      -0.740178231653
24 1       2.436411456373       2.710068578705       2.883481492244       0.305805331924       0.685523753650      -0.936763783230
25 1       2.211316912939       1.981600093778       2.142962343648      -0.067598822276       0.130428367274       0.362933912095
26 1       0.761814171722       1.289934302445       0.888922646699      -0.320498508658       0.811620418724       0.779397323231
27 1       2.433209344457       2.708551231254       2.881961753919      -0.303298198963       0.688194374436       0.936418274409
28 1       1.467678754794       1.124159748088       0.956065155767      -0.363160290984       0.477758782183       0.737275972398
29 1       0.306230859897       0.910629286230       1.205967611570      -0.380618801264       0.920665981605       0.456742730156
30 1       0.761841506555       1.289911605386       0.888958766088       0.320474681495      -0.811677265726       0.779375088218
31 1       1.551873553193       2.560096281576       2.265770695528       0.020515621680       0.202317127020       0.035325659509
32 1       1.552412471060       2.563069862565       2.265749050681       0.018280203957      -0.201308628783      -0.034323600335
33 1       0.306230196689       0.910666265637       1.205950169115       0.380657053514      -0.920651243043       0.456735539081
34 1       2.208160642665       1.982019408860       2.142380188074       0.066907330823       0.131336477422      -0.362555088990
35 1       1.551926683097       2.560145848711       2.265830902100      -0.020517599845      -0.202287096463       0.035349472718
36 1       1.552394027963       2.563058627492       2.265761627667      -0.018285512873       0.201307079295      -0.034328343579
37 1       2.211351034838       1.981620472696       2.142897069474       0.067572029860      -0.130440781495       0.362925041836
38 1       0.306665337205       0.905374514636       1.203789053379       0.376622241199       0.923467668147      -0.457633049983
39 1       2.433235028896       2.708527218179       2.881955244039       0.303291020842      -0.688176131068       0.936413985196
40 1       1.467697700254       1.124127721856       0.956077868999       0.363161719643      -0.477743449677       0.737267170882
