ITEM: TIMESTEP
0
ITEM: NUMBER OF ATOMS
160
ITEM: BOX BOUNDS pp pp pp
0.0000000000000000e+00 8.3410883540000000e+00
0.0000000000000000e+00 8.3410883540000000e+00
0.0000000000000000e+00 2.5023265062000000e+01
ITEM: ATOMS id type c_pe_atom
1 2      -9.837534685527
2 2      -8.804877012504
3 2      -8.885763328633
4 2      -9.771939219613
5 2      -9.841421818532
6 2      -9.860255135701
7 2      -8.945708199261
8 2      -9.126313873161
9 2      -8.912357207617
10 2      -8.844612519107
11 2      -8.989057956530
12 2      -9.888417165936
13 2      -9.848450794322
14 2      -9.796171813285
15 2      -8.864061027794
16 2      -9.274277794318
17 2      -8.947671296790
18 2      -9.793355166566
19 2      -8.942088889350
20 2      -9.223505279419
21 2      -5.284804840963
22 2      -4.553949054456
23 2      -5.273808052996
24 2      -3.825598135060
25 2      -4.514828475577
26 2      -5.942467231189
27 2      -5.965848240114
28 2      -3.722276741067
29 2      -6.135756269357
30 2      -4.938920835616
31 2      -4.592157671487
32 2      -4.702239732329
33 2      -4.184814679004
34 2      -4.141471758134
35 2      -4.521153498298
36 2      -3.985783389616
37 2      -5.445188096912
38 2      -4.171089516253
39 2      -5.965254136200
40 2      -5.998264619389
41 2      -5.124893569198
42 2      -5.463588582014
43 2      -4.716941859423
44 2      -4.369188771861
45 2      -4.129249431574
46 2      -4.086251363721
47 2      -4.314190644246
48 2      -5.392954079138
49 2      -4.332796906761
50 2      -5.782120149473
51 2      -5.915488574847
52 2      -4.336997033180
53 2      -3.961825545687
54 2      -4.395501089305
55 2      -4.426225094190
56 2      -5.054599339246
57 2      -4.560814887993
58 2      -4.629484510572
59 2      -4.447343034257
60 2      -5.996382982744
61 2      -9.774552972869
62 2      -9.591530026135
63 2      -9.514200662235
64 2      -9.661177288612
65 1      -7.270390008646
66 1      -7.485673066616
67 1      -3.816173257888
68 1      -3.428609940810
69 1      -3.052531646544
70 1      -3.419031526408
71 1      -7.269098664589
72 1      -3.317447429730
73 1      -7.277889564470
74 1      -3.252970239113
75 1      -3.087257990580
76 1      -7.935900914800
77 1      -4.192018554339
78 1      -3.947398381013
79 1      -3.103073306477
80 1      -8.444061085432
81 1      -7.248526912838
82 1      -7.227800687601
83 1      -7.513960278626
84 1      -7.741865673912
85 1      -3.763918275111
86 1      -3.524498227146
87 1      -7.206717580915
88 1      -7.754468919131
89 1      -7.785347873386
90 1      -7.342909981321
91 1      -3.309287878994
92 1      -6.914302942019
93 1      -3.933973324469
94 1      -3.231411636586
95 1      -8.550223545707
96 1      -3.305529925755
97 1      -3.350359908875
98 1      -7.983688040047
99 1      -7.893253288785
100 1      -3.772578376844
101 1      -6.976336899174
102 1      -3.547584591212
103 1      -3.978818870904
104 1      -7.410836379196
105 1      -3.343762230696
106 1      -7.244208377387
107 1      -3.317917166348
108 1      -3.480675011191
109 1      -7.725423056729
110 1      -7.153671621702
111 1      -3.368227341572
112 1      -3.086766733562
113 1      -3.962146121582
114 1      -3.214589113257
115 1      -7.383369328845
116 1      -7.327204987005
117 1      -7.618739353187
118 1      -7.268824647959
119 1      -3.892149674465
120 1      -4.206943414575
121 1      -7.515648783737
122 1      -7.875589134719
123 1      -3.569929162349
124 1      -2.971145909689
125 1      -7.817385838916
126 1      -3.501473615695
127 1      -7.603909828418
128 1      -7.682889360160
129 1      -4.032831081504
130 1      -7.338314525956
131 1      -4.017401809872
132 1      -7.351821741610
133 1      -7.588827864390
134 1      -8.515390966063
135 1      -6.965840641261
136 1      -4.234000656562
137 1      -3.285049480166
138 1      -6.974977085575
139 1      -7.454002955810
140 1      -3.310079702962
141 1      -3.569904350782
142 1      -7.444708507018
143 1      -3.380872086116
144 1      -7.223631468644
145 1      -2.860401520247
146 1      -3.973191447686
147 1      -7.329961534957
148 1      -3.341073863390
149 1      -3.422895699570
150 1      -7.666365659668
151 1      -7.319715509202
152 1      -7.944197453634
153 1      -7.147348192565
154 1      -3.951995774162
155 1      -3.103233309748
156 1      -7.052394891323
157 1      -7.137973553397
158 1      -4.124050844064
159 1      -3.488488798820
160 1      -3.510399925293
