ITEM: TIMESTEP
0
ITEM: NUMBER OF ATOMS
160
ITEM: BOX BOUNDS pp pp pp
0.0000000000000000e+00 8.3410883540000000e+00
0.0000000000000000e+00 8.3410883540000000e+00
0.0000000000000000e+00 2.5023265062000000e+01
ITEM: ATOMS id type v_vir_xx v_vir_yy v_vir_zz v_vir_xy v_vir_xz v_vir_yz
1 2      -3.479443130010      -1.354088620640      -1.414362234138      -0.005079184076      -0.191902776440      -0.104548998685
2 2      -3.781807176788      -2.871146466874      -3.375447637401      -0.267534596250       0.491423423149       0.094050650705
3 2      -2.675358118654      -3.736330970421      -3.141949924847       0.328899421331       0.480606961630      -0.025032177200
4 2      -1.126835978692      -3.224363005389      -3.226449621318       0.328356644254      -0.236418560278       0.542024588624
5 2      -3.330623279605      -1.319647681683      -3.141638713979       0.136904086103      -0.050861873583       0.058516031994
6 2      -3.436132255675      -1.458697297306      -1.980144669113       0.256576164616      -0.009528088091      -0.384927510629
7 2      -2.792373841620      -3.963553534090      -1.496949641254      -0.635707979327       0.044337562009      -0.038554522193
8 2      -0.952105588200      -4.306765711874      -3.283911798958       0.086707651806      -0.240807683896      -0.311450860520
9 2      -4.146159480806      -2.929495268615      -1.436374073752      -0.598814174537       0.095061494814      -0.340287637358
10 2      -2.886193147711      -3.756997806196      -3.234055055607       0.333196498592       0.098169865345      -0.287538621592
11 2      -4.371794591981      -1.274251346815      -3.470444078614      -0.030316228661       0.335160385254      -0.186748155072
12 2      -1.125994744513      -3.228332738674      -3.192293493686      -0.010827170449       0.509179442244       0.479797379690
13 2      -1.572479917176      -3.437775377565      -2.177950509431      -0.352654597402       0.659503054199      -0.127213704401
14 2      -3.249824831008      -1.307234432159      -3.217391121781       0.165433630196      -0.055009021291       0.034054929914
15 2      -3.815727947903      -2.655935653475      -3.123403614477       0.355518541445       0.174852731653       0.385618181187
16 2      -0.661707837735      -4.142775516862      -3.500509078650      -0.084773217332      -0.282294634690      -0.063398835701
17 2      -3.727655570060      -3.012538317170      -1.575002923891       0.546296731639       0.028533805790       0.155340609625
18 2      -1.387125805979      -3.499133955955      -1.937605604141       0.085198523693      -0.281410900791      -0.315082462878
19 2      -2.817735630686      -3.960691619488      -1.495297768749      -0.625878158310       0.090021040013      -0.008507296542
20 2      -4.105086744270      -0.723694992007      -3.499038068586       0.165912310017       0.272035232838       0.571230587822
21 2      -2.358011821145      -2.470140768496       0.006464779576      -0.612339749655       0.132230370850       0.127564607419
22 2      -1.863456443844      -1.975404466363      -3.806555682891      -0.597615600669      -0.293752855369       0.421574810309
23 2      -3.503464332475      -0.463084144377      -0.381599100420      -0.254396587443       0.436759674732       0.505075058321
24 2      -2.579293919070      -3.365286950189      -2.982841167099      -0.750446044080       1.303860961587       1.253783242807
25 2      -3.445926681050      -1.242603569240      -1.794134987341      -0.423754416177       0.435538815096       1.013504849197
26 2      -2.163691271929       0.121788502247      -1.942334334243       0.356284896928       0.251743522008      -0.692556307203
27 2      -1.957274520516       0.546969686155      -2.284266051543      -0.401564423235       0.314042397890       0.253141084987
28 2      -3.149673456471      -2.942298781677      -3.134099382141       0.779256022271       1.311502879313      -1.360813070298
29 2       0.003095346956      -1.974633042534      -1.805365790166       0.245918526387       0.502077212153      -0.487604587323
30 2      -0.491219569627      -3.539063762202      -0.314858507648       0.802226449987       0.252864783189       0.648201518777
31 2      -1.598732378823      -1.980281838587      -3.768130708234       0.350611716681       0.691111968257       0.274792904913
32 2      -1.592778472966      -1.599210255631      -3.953725441455       0.443285277228      -0.173828971840       0.184971632860
33 2      -2.954741853714      -3.002748036492      -3.559080642880       0.746820210792      -0.088387398717       1.086005093090
34 2      -3.169070554663      -2.850134426068      -3.857087453326      -0.757310737790       0.219499615342       1.270821975734
35 2      -2.043311008473      -1.607379377283      -3.343231373435       0.383827304796       0.515332571866       0.648271827782
36 2      -3.316793060892      -1.638026829173      -1.866707119793       1.148183385629      -0.379118632020       0.123263779265
37 2      -2.113157750604      -2.474758250407      -0.237964708775       0.023299992873       0.814945522511       0.262169015665
38 2      -2.680070703004      -3.087250060327      -3.287895776328       0.636275403150      -0.588179607366       0.139861983922
39 2      -2.035445428850       0.406051829066      -2.279155488640       0.322447501427       0.040065008375      -0.647075283024
40 2       0.229229744958      -2.234447522754      -2.363860517519      -0.330370203969      -0.271444815393      -0.099013387429
41 2      -3.049680884001      -2.797186519374      -2.295097178005       0.136787323790      -1.414500008713       1.386074089280
42 2      -1.676000109921      -3.078127592244      -0.815019950093       0.277325464637      -1.006845006293      -0.525354554732
43 2      -1.625571794150      -1.859713272797      -3.885049637528      -0.363425302903       0.678772515159      -0.085940934315
44 2      -2.795908714333      -3.312528432184      -3.425587977074       0.726030660487      -0.690417971164       0.231424299905
45 2      -3.203802054215      -2.780131512980      -3.514656540250       0.686675239251       0.340913573108      -0.807185055460
46 2      -3.061647342668      -2.918668549841      -3.075390776385      -0.572114601801       0.009032543468      -0.775137491999
47 2      -2.776545247251      -3.137038101612      -3.221595956681      -0.703491056981      -0.800404107891      -0.048699724752
48 2      -1.572016981532      -3.112856044665      -1.127331782450      -0.245298302373      -1.035369968520       0.692797656750
49 2      -2.758480257043      -3.181319638695      -3.396188952366      -0.749085439210      -0.866076074139       0.066910965275
50 2       0.023237846696      -2.147156647798      -2.219808107847      -0.303682099419       0.686946043817       0.098164380309
51 2       0.279925079562      -2.163110418990      -2.161460045875       0.260853440469      -0.349972423039      -0.069373497450
52 2      -3.040490202709      -1.718614834431      -1.602200929183       0.281555943654       0.483850547325      -0.778427194952
53 2      -2.008669912026      -3.114962462214      -1.586975516352      -0.954242177949       0.173289006619      -0.606248329804
54 2      -3.043145432112      -1.725168638768      -1.557103413190       0.323580230446       0.561364748923      -0.747703815178
55 2      -1.777513092960      -1.630682811595      -3.298871535771      -0.377818368969       0.248076790123      -0.175079896592
56 2      -2.903241019265      -2.910870669755      -2.242666542293      -0.130452094875      -1.341507675867      -1.551629124059
57 2      -1.138830040210      -3.427543343944      -1.772542270619      -0.419946559945       1.088016769725       0.257057302706
58 2      -2.066802765598      -1.679455682581      -3.844920350398       0.446973598263       0.463414125505       0.565714527614
59 2      -1.747144309928      -1.631419165731      -3.366986120779      -0.424386483190       0.415654249423      -0.135270008958
60 2      -1.917144454947       0.468440795748      -2.380800444289      -0.399010404231       0.467691475141       0.192395005457
61 2       0.005358493772      -1.668645951269      -1.536980572405      -0.019319302918       0.127817202917       0.979095545656
62 2      -1.534503728004      -0.267946385845      -1.577997539282      -0.034251974708       1.042932682186       0.156840561848
63 2      -0.217460158228      -1.534017696247      -1.483070543272       0.145967877958       0.112035203013      -1.139661127457
64 2      -1.558973218282      -0.111178943256      -1.540626982298      -0.003106230076       1.060421144521       0.004230018747
65 1       2.349194212348       1.898002126502       1.724347768122       0.326268498954       0.136690672698       0.025580496793
66 1       1.946488922701       1.947069594734       2.427573851045       0.277068196454       0.239275948146       0.244251298721
67 1      -0.102727407160       1.206494158805       1.877643396618      -0.297503028655      -0.217526536483      -0.570481124241
68 1       0.929396088661       1.182064377170      -0.385228115792       0.354297369662      -0.056663701830       0.027171606544
69 1       1.508511286930       0.409515651531       1.436352297898      -0.141594076003       0.366487217908      -0.215001772897
70 1       1.347780629603       0.104109598333       1.150863355838      -0.145448966828       0.370728386138      -0.248353211829
71 1       1.863020079572       1.906542659539       1.295326523813      -0.470333726603      -0.136096076138       0.315207515698
72 1       0.880037777664       1.201244827774       0.946555529069      -0.091187895465       0.074783485105       0.022956417934
73 1       2.030138492389       1.803639607688       1.456000853497       0.429046311233      -0.443192319476      -0.321962579658
74 1       0.646774601922       1.254666845756       1.010127465997       0.237573045862       0.127771884696      -0.078304740006
75 1       1.560104108307       0.430594309133       1.469964235006      -0.162929966525       0.479929326725      -0.198445961625
76 1       2.019412982253       1.818472896964       1.665024704110      -0.584598368938       0.549469023802      -0.663210537340
77 1       0.673402513452       1.384240612529       0.335395741480      -0.038039613981      -0.251999152681      -0.006711056004
78 1      -0.392210463070       1.283507598710       1.376664385117       0.064419122328      -0.247575514392       0.443382532755
79 1       1.521639204260       0.486540016588       1.522434136625       0.174321421134       0.418652933937       0.113931860515
80 1       2.010617362826       1.930691005179       2.012861302902       0.613918742643       0.616755023883       0.726143858073
81 1       2.029411845095       1.832766409093       1.465304516669       0.430494160231      -0.452941035177      -0.326564808959
82 1       2.115784355924       1.899359950025       1.598628542206       0.256356939860      -0.344671331609      -0.268791656370
83 1       2.221590935186       1.986857252946       1.831017610055      -0.342228421397       0.124026461736      -0.304687173451
84 1       1.966825458857       1.752297473379       2.660063531811      -0.047113290757       0.319633131357      -0.492829646723
85 1       0.467997718445       1.124670450809       0.631160942984      -0.035538643769      -0.392889183236       0.076256101209
86 1       0.985842884148       1.222325540445      -0.277325274321       0.361220927669      -0.021802782352      -0.002922891695
87 1       2.145537553564       2.207946520810       2.241730371029      -0.290683803575       0.315147948215      -0.236581540169
88 1       1.957190293539       1.788377109313       2.678739586495      -0.051916557836       0.336301765157      -0.579882563541
89 1       1.653042194499       2.063701871833       2.516049078067      -0.005850475882       0.357874609218       0.579902766833
90 1       2.372475479956       1.866202512993       1.713866065517       0.324568817485       0.125630760955       0.024304280359
91 1       0.731392867095       1.157542741107       0.930136305534      -0.110130092419       0.089592890066      -0.002159160475
92 1       1.826358024374       1.878935184004       2.097247425664      -0.172461131101      -0.378810094587       0.419919142720
93 1      -0.472403594414       1.262344261749       1.368213324622       0.117585332871      -0.130245506437       0.390049063100
94 1       1.130711042550       1.129225845163       0.085368405622      -0.337721400308      -0.317244537580      -0.213249074325
95 1       2.008783202761       1.960584524892       1.986872496257       0.633816564448       0.618986517137       0.745976534918
96 1       1.495624661653       0.542983789280       1.158351381997       0.114252409038       0.178124454173       0.058204289548
97 1       0.458179940762       1.448099283712       1.042820323660       0.139654289691       0.246549762704       0.191108730452
98 1       1.800829055898       1.845911395237       1.741041622999       0.499421188669       0.633067457522       0.571180987396
99 1       2.139731107451       1.710341277090       1.528477262890       0.522884856249      -0.760117846975      -0.401027921926
100 1       1.075154442710      -0.069083818694       1.843138105310      -0.176006004221      -0.552957426312      -0.332164283665
101 1       2.023121872848       2.245553079025       1.905511920186      -0.312486899363       0.313099927418      -0.488504478440
102 1       1.192316083788       0.621181531517       0.526077296084      -0.310875046686       0.230765899754      -0.087177138859
103 1       0.969297869687       0.571823246519       1.099586711108      -0.004133856646      -0.160292235129      -0.033938563513
104 1       1.956248789087       2.084287030875       1.816832350434      -0.237341102136      -0.230903369799       0.101622410294
105 1       1.347971494828       0.595632418306       1.067308616822       0.166624429686      -0.078196667735       0.103364983409
106 1       1.623751664746       2.207325854638       1.827834077030       0.314948555995      -0.084602884796      -0.312156177315
107 1       1.195729375863       1.281391437249       0.172421741962      -0.326453908108       0.068733404621      -0.393958522761
108 1       0.484363356866       1.381852156574       1.889788335778      -0.097507562344       0.142021906608      -0.492936384320
109 1       2.032065603742       1.706421752914       2.564126779425       0.045048418625      -0.409988041522       0.264060431646
110 1       1.899261954101       1.829614331078       2.355173378900      -0.205898853468      -0.129772250908       0.063029025501
111 1       1.195476867161       1.218174933814       0.244940134787       0.310324039268       0.094818327856       0.324413949445
112 1       0.387619562457       1.627755979922       1.488199132584       0.208421421684       0.197128834740       0.445915868334
113 1       1.179145115837       0.518410261100       0.860021164470      -0.090225996793       0.198382054386      -0.389810141798
114 1       1.183083660397       1.217760536280      -0.056194262173       0.259169067327       0.345326998422      -0.190933021482
115 1       1.959412765784       1.925583973832       2.490843856643      -0.110213456149       0.532973469098      -0.337870641103
116 1       1.979231899147       1.992753655435       1.462835321562      -0.539454095349       0.342445055389      -0.196575703449
117 1       1.707131213389       1.826161962989       1.769792749521       0.565794638641      -0.396163682809      -0.381922733911
118 1       1.998834136869       2.191322926151       1.747385224508       0.162994995667      -0.247186158016      -0.377101607759
119 1       1.065360752744      -0.187025854383       1.816675284330       0.251625434175       0.592451176679      -0.343313312734
120 1       1.385947200206       0.664637248554       0.584762997629      -0.041511498181       0.076265105830      -0.392442853151
121 1       2.048405785361       2.086721342549       1.619005436610       0.521623521153       0.317385157576       0.295668537000
122 1       2.166852355187       1.724070691852       2.586001970149      -0.055082766654       0.623818379619       0.346463823382
123 1       0.373680846814       1.495148853187       0.950116626279      -0.095997707666      -0.041477383146       0.217100629920
124 1       0.554093066320       1.677459578631       1.917605723626      -0.102372286140      -0.024268467517       0.308185295853
125 1       1.736156094818       2.051348608047       1.583855313282      -0.570765413772      -0.640699483085       0.546680925598
126 1       1.362783961049      -0.322888482528       1.402302132571       0.133956718610      -0.406276118485       0.155540740534
127 1       1.942226271326       2.052612956851       2.572037599849       0.235690952083       0.227433077481       0.195596367712
128 1       2.102791245716       1.941083487080       1.833721808742       0.437961411087       0.216663219389       0.110759626839
129 1       1.302624461252      -0.511606712379       1.489066958465      -0.128460087489       0.452668760688       0.114026746857
130 1       1.808273225736       2.035160313253       2.459525850749       0.108576827432       0.220201896059       0.562062840648
131 1       0.430731217409       1.479227346608       0.681454545828       0.015880151802      -0.453811854278      -0.018946756410
132 1       2.183928322932       2.141493879442       2.079315424901       0.214431459136      -0.123787708535      -0.014919696158
133 1       1.793910375902       2.067992460650       2.146562322583      -0.406711559600       0.416346723087      -0.242383248175
134 1       1.768384966387       2.095124542073       2.053833925039      -0.597696408072       0.504604607557      -0.844626092307
135 1       1.797783122082       1.865084546970       2.212360665351      -0.220479784788      -0.377791210575       0.448107495094
136 1       1.404444143467       0.629095915446       0.520216041720      -0.071513266325       0.181534057849       0.465797976732
137 1       0.031548384306       1.329976952198       1.194768775817       0.145643226767      -0.095065726105      -0.230327086781
138 1       2.047730711543       2.016044135984       1.908135446466       0.310068775756      -0.369058928602      -0.373957795973
139 1       2.155522663157       2.097879542969       2.191162585905      -0.250059920370       0.290061935901      -0.053938053155
140 1       1.429526422191       0.116945073250       1.271424410037      -0.163573724213       0.325571690127      -0.221369330859
141 1       1.129828825396       1.153992251461      -0.154672792239      -0.367739771006      -0.254184144307      -0.235019997179
142 1       1.644695965201       2.103449817780       1.401827404196      -0.470665540911      -0.279741251065       0.436475697121
143 1       1.570018902630       0.288060993138       0.931088220452       0.184408426537       0.295591932445       0.137191410616
144 1       2.075577591185       2.017649797432       2.303312254340       0.325247959099       0.508144814188       0.471670809012
145 1       0.487414056779       1.586139634057       2.082566802104       0.167786101055      -0.038329306652      -0.266291947182
146 1       0.353660787478       1.093139874743       1.108204609192       0.055585506481       0.094309332980      -0.040480134202
147 1       2.251903656723       2.224793807305       2.316215526082      -0.313745240946       0.323385055030      -0.256735072238
148 1       0.203308215598       1.387899391471       1.218987537055      -0.075360075960       0.240695977322      -0.204698510129
149 1      -0.400726029928       1.358004703858       1.229468579328      -0.187218680609      -0.134746525650      -0.455003290990
150 1       1.731119355136       1.985286006144       2.535520247387       0.101190051348      -0.401486766559      -0.234736754201
151 1       2.366335145903       2.054639105998       1.852790763240      -0.184986984211       0.049752881501      -0.048474140127
152 1       2.055897374724       2.104595683145       1.735338417430      -0.545776663977       0.595843015707      -0.391257520994
153 1       1.936252969947       1.798760455098       2.312237905805       0.230710498848       0.213190800324       0.286744040539
154 1       1.400880811413       0.774642840506       0.357332317250       0.146486670719       0.126397931164       0.464114174552
155 1       1.256093260668       0.941856239298      -0.333053801056      -0.292478634201      -0.055379262991       0.107805566931
156 1       1.705923659948       1.869228512728       1.475997933395      -0.465767849565      -0.233072262613       0.555952072799
157 1       2.006654985129       1.930324337196       2.197840475092      -0.196826166365      -0.355012118496       0.356463316775
158 1       0.706919383779       1.381610451186       0.433124861991      -0.079867754233      -0.370475360178       0.029618733492
159 1       1.376911851388       0.784168722752       0.614986726397       0.161790343597       0.154190040227       0.167137666589
160 1       1.639556148696       0.542320810712       1.842295129210       0.143408934830       0.247258217630       0.273428581273
