ITEM: TIMESTEP
0
ITEM: NUMBER OF ATOMS
160
ITEM: BOX BOUNDS pp pp pp
0.0000000000000000e+00 8.3410883540000000e+00
0.0000000000000000e+00 8.3410883540000000e+00
0.0000000000000000e+00 2.5023265062000000e+01
ITEM: ATOMS id type x y z fx fy fz
1 2       1.209920000000       5.180460000000      22.001320000000      -0.341843914121       0.066454492421      -0.041940743277
2 2       5.178580000000       0.842630000000      13.620750000000       0.000405159906       0.048638272045      -0.194729499720
3 2       7.126110000000       7.374610000000       7.361080000000      -0.040755792872      -0.195320468388      -0.191404609091
4 2       7.259750000000       7.104010000000      15.710930000000      -0.086549191316       0.480582944949       0.148324977784
5 2       5.202230000000       5.232420000000       0.979920000000       0.268906926263      -0.017045539146      -0.136932985473
6 2       3.017880000000       3.191010000000       7.183510000000       0.222923301019      -0.071227341361       0.140019133682
7 2       0.946210000000       1.045020000000       1.091370000000       0.015915520260       0.037974283372      -0.074095063386
8 2       5.149640000000       1.031680000000       5.222480000000       0.007925589313       0.026054519807      -0.165855850358
9 2       3.169900000000       2.951580000000      15.587360000000      -0.078147005378       0.065155808583      -0.009458057895
10 2       5.362910000000       1.111080000000      21.829240000000       0.050860554948      -0.057549548229       0.220204844733
11 2       3.122560000000       7.220090000000      11.470580000000      -0.035791768016       0.120159970371      -0.128494418997
12 2       7.390480000000       3.183660000000      19.734920000000      -0.120915454446      -0.417459644620       0.027655561193
13 2       1.013840000000       5.075940000000      13.434850000000      -0.036281560434       0.277666198077       0.125874726645
14 2       7.299100000000       3.208900000000       3.192740000000      -0.303498411746      -0.008970485042       0.120622210704
15 2       5.079460000000       5.318090000000       9.332470000000       0.196088007144      -0.040748530687       0.193319967340
16 2       7.327930000000       7.409540000000      24.011610000000       0.053879545682      -0.096136766781      -0.002739266040
17 2       3.183660000000       7.421360000000      19.856970000000       0.023333387913      -0.101952614293      -0.033120367599
18 2       0.909240000000       1.073830000000       9.481360000000       0.057816718570      -0.244193979360      -0.141495397792
19 2       3.216520000000       7.396290000000       3.078260000000      -0.058886129571      -0.048453834153       0.018449184688
20 2       1.172440000000       1.032430000000      17.753680000000      -0.144226174530      -0.102389345594      -0.091908760604
21 2       3.912630000000       0.190630000000       8.354190000000       0.079562931562      -0.012937481787       0.031509662915
22 2       6.116080000000       6.088960000000      12.488160000000       0.312564660599       0.053181507481      -0.190873973593
23 2       2.153740000000       2.129670000000      20.868710000000      -0.011922398601      -0.167177151813       0.031959922405
24 2       6.380560000000       6.268830000000      20.817430000000      -0.001319221674       0.058794026205       0.355841470719
25 2       1.954790000000       6.370500000000       8.250390000000      -0.114332147221      -0.128981953463      -0.031457453001
26 2       8.293770000000       2.053630000000       6.217230000000      -0.222727850099      -0.129153699863       0.082845330805
27 2       1.984570000000       2.086180000000       4.206700000000       0.112606851505      -0.068200414436      -0.187277898031
28 2       0.046200000000       2.004840000000      14.556630000000      -0.011580918817      -0.030527222669       0.390271427809
29 2       0.166640000000       6.179920000000      18.723140000000      -0.010326678100       0.335369397301       0.254722326222
30 2       6.248630000000       0.056960000000       2.095340000000       0.009352046357      -0.022112483167      -0.047096796675
31 2       6.075570000000       0.075730000000      10.489660000000       0.414608737505      -0.171974253077       0.185090836266
32 2       4.163300000000       2.189310000000      18.720640000000       0.282711326662      -0.029250223716      -0.228701936198
33 2       6.384850000000       8.298540000000      18.772290000000      -0.253452138810       0.435366685602      -0.215247502347
34 2       6.329720000000       2.047190000000      16.666510000000      -0.076181041891      -0.520061930764       0.266032836431
35 2       0.158210000000       2.062090000000      22.990950000000      -0.098000720312       0.228503846720       0.117011325212
36 2       2.024920000000       8.127110000000      14.691510000000      -0.132596272597       0.091407397675       0.105227261577
37 2       3.999070000000       6.002900000000      14.605260000000       0.142102807215       0.063125090583       0.086936990410
38 2       6.229350000000       4.191800000000       6.277860000000      -0.331496338854       0.167405205754      -0.286949937882
39 2       4.191760000000       6.362570000000      22.976960000000       0.319886244404       0.369276570162      -0.111589914431
40 2       0.097330000000       4.171690000000      16.680840000000       0.136749817841      -0.302635040879      -0.086354296039
41 2       2.080690000000       4.223450000000       2.084060000000      -0.011170443791      -0.001564062026       0.002607282232
42 2       4.124370000000       4.285850000000      20.801290000000       0.227503095096      -0.000014924716      -0.290151806597
43 2       4.129190000000       8.147440000000      16.744400000000       0.429021094642       0.171423059185       0.150291409820
44 2       6.274880000000       4.226170000000      22.895840000000       0.400665745145      -0.107514198969       0.299390575582
45 2       8.276850000000       6.180510000000      10.407620000000      -0.147630370332       0.299459299540       0.231410378312
46 2       8.324480000000       8.274900000000      12.534130000000      -0.166926225952      -0.196458625017      -0.190669205014
47 2       0.033950000000       4.258060000000       0.037620000000      -0.392993615046      -0.054646108583      -0.296367739686
48 2       6.196290000000       4.046900000000      14.569280000000       0.092463512200       0.044828694874      -0.316244396089
49 2       4.118240000000       4.177600000000       4.138420000000       0.386336888037       0.119204368976       0.239396048093
50 2       2.118990000000       2.027590000000      12.437340000000       0.218830845000      -0.157320027970       0.227678352825
51 2       2.086700000000       4.093610000000      10.438610000000       0.102320253039       0.269210905848      -0.150770480989
52 2       0.041570000000       6.403190000000       2.188990000000       0.057832858326      -0.164285331612      -0.045559098762
53 2       0.203750000000       8.300840000000      20.954090000000      -0.221819161754      -0.095783069900       0.034702748375
54 2       4.107770000000       2.034640000000       1.976340000000      -0.058840706162       0.179861421270       0.035309076881
55 2       6.178210000000       2.050080000000      24.977540000000       0.023908544333       0.253830002685      -0.172038084162
56 2       8.314850000000       4.127680000000       8.337490000000      -0.015026808690       0.030038177476      -0.016698904341
57 2       6.062800000000       2.159300000000       8.443810000000       0.138646262712       0.107167104676      -0.031821172948
58 2       4.003540000000       6.398200000000       6.195340000000       0.094473616745      -0.401848248628      -0.201144917952
59 2       6.313130000000       6.394900000000       4.222300000000       0.010647854036      -0.337509045920       0.146053948202
60 2       2.171540000000       6.358530000000      24.989290000000      -0.205481298627       0.088914397888       0.164835971657
61 2       5.147490000000       3.111650000000      11.511610000000      -0.276551116971      -0.008572829584       0.079583766469
62 2       3.160350000000       1.073030000000      23.960630000000       0.112637329984      -0.412159337274       0.024690240457
63 2       3.161440000000       5.146950000000      17.719640000000      -0.152492281202      -0.042724584386      -0.027163353158
64 2       0.984460000000       7.364190000000       5.206440000000      -0.028329812043       0.256056893062      -0.034742038361
65 1       2.111010000000       2.138790000000       2.113650000000       0.182257650949       0.167039788421       0.176180318409
66 1       6.119740000000       6.208860000000       6.220270000000       0.093448922708      -0.024518970983      -0.113752650237
67 1       4.224030000000       8.282940000000       6.396380000000       0.057659574185       0.106428554159      -0.067590663213
68 1       4.289220000000       0.127080000000       2.064280000000      -0.002756375060       0.019819948133       0.072881189058
69 1       8.226430000000       6.318600000000       4.108830000000       0.303122799727      -0.138244645351       0.254481978090
70 1       0.025690000000       2.157250000000       4.250640000000       0.176525743984       0.048633296942       0.230420302868
71 1       6.177860000000       4.155240000000       8.311230000000       0.272660919320      -0.193993105206      -0.132446607195
72 1       1.915870000000       4.411860000000       0.216250000000      -0.011572269974      -0.021496840705       0.051034530444
73 1       8.334240000000       4.332100000000       2.065990000000       0.275388205013       0.069938027952      -0.144233268558
74 1       8.102320000000       4.008620000000       6.472070000000      -0.010360118338      -0.030079158538       0.094239046332
75 1       4.263520000000       2.115840000000       0.051170000000      -0.327766858781       0.179264681843      -0.202278280116
76 1       3.999270000000       6.361360000000       8.210400000000      -0.096895113319       0.068993847878      -0.078769543777
77 1       2.104250000000       0.082720000000       4.152230000000       0.064761980509       0.141374187732      -0.008355275808
78 1       6.129000000000       8.291680000000       4.074460000000      -0.078326205513       0.165928934065       0.024042260675
79 1       2.088030000000       6.348850000000       6.322180000000      -0.251976868944      -0.094727470934      -0.271753857689
80 1       6.196190000000       2.118320000000       2.023050000000      -0.075756608594      -0.116457609583      -0.102489285430
81 1       4.163630000000       4.107700000000       2.103170000000      -0.274632382334      -0.067182928320       0.158743515756
82 1       4.204450000000       4.311530000000       6.149650000000      -0.180416229204      -0.132830444798       0.045575466451
83 1       8.140420000000       2.093850000000       8.321630000000      -0.021811216811       0.284519755643      -0.247698686180
84 1       0.044760000000       6.277290000000       0.091660000000       0.265113431691      -0.114208792704      -0.098624768057
85 1       8.199830000000       0.066990000000       6.274840000000       0.087496565025       0.133237681754      -0.055690234314
86 1       8.207710000000       8.314460000000       2.103520000000       0.022522448874       0.003878375862      -0.076563324724
87 1       4.222830000000       6.208260000000       4.209940000000      -0.145690385372       0.068126198986       0.084282577239
88 1       4.104870000000       2.160690000000       4.088460000000      -0.227415393929       0.044641967743       0.058894122745
89 1       6.226350000000       2.158600000000       6.327460000000       0.213482042518       0.040416552587      -0.012401928021
90 1       2.045810000000       6.305490000000       2.054380000000      -0.179147965492      -0.165932845566      -0.137502753457
91 1       2.238020000000       4.033440000000       3.950490000000       0.025649954631       0.056083670053      -0.028595568093
92 1       6.133090000000       4.302490000000       4.252610000000       0.087568683713       0.017062988382       0.010299780588
93 1       6.347870000000       0.150760000000       0.112490000000       0.080326628187      -0.090681769606       0.008713892906
94 1       2.020060000000       8.293370000000       8.479040000000       0.135802925459       0.242014860604       0.112424695035
95 1       6.297110000000       6.327620000000       2.149020000000       0.075131746308       0.093261772712       0.123754646658
96 1       1.912590000000       2.142580000000       6.146240000000      -0.036415683641      -0.065743051589       0.064422008511
97 1       2.022050000000       2.138310000000      10.493590000000       0.107963839796       0.044165753088       0.063408953269
98 1       6.174250000000       6.097060000000      14.525600000000      -0.152604231804      -0.204486121958      -0.178721323149
99 1       4.090460000000       8.150490000000      14.735050000000      -0.014219885743      -0.182670663313       0.103740574408
100 1       4.188980000000       8.183960000000      10.301170000000      -0.155572708912      -0.013266033815       0.086203101559
101 1       8.196760000000       6.260630000000      12.422020000000       0.046650124285      -0.128604023234      -0.029148237976
102 1       0.162070000000       1.805270000000      12.690400000000      -0.011630573668      -0.024989096085      -0.103643648830
103 1       6.505880000000       3.907950000000      16.455380000000      -0.000201779562       0.086362703274       0.030454555315
104 1       2.016050000000       4.296370000000       8.355130000000      -0.262832921407      -0.025414982195       0.208404046026
105 1       0.119980000000       4.310890000000      10.204540000000      -0.008554696468      -0.021971650974      -0.043101397560
106 1       8.338410000000       4.002310000000      14.613870000000      -0.169655078968      -0.048382085941       0.157185076794
107 1       4.137060000000       2.088710000000       8.202470000000      -0.233318965209      -0.134133912711      -0.160330447144
108 1       4.127260000000       6.250220000000      16.565240000000       0.023975892635      -0.085013842324       0.283174160240
109 1       2.014430000000       8.296230000000      12.575560000000      -0.021369194888       0.179081457194      -0.116354851227
110 1       6.303520000000       8.176940000000      12.469960000000      -0.011131250327       0.123065011660      -0.059424615133
111 1       2.088170000000       6.218720000000      14.455160000000       0.106746157898      -0.310256452379      -0.181385606526
112 1       6.116140000000       1.996150000000      10.363850000000       0.143788057141       0.254920495819       0.216359798253
113 1       4.085910000000       4.223420000000      10.432810000000      -0.144552194527      -0.107903636280       0.139232126141
114 1       4.258020000000       4.106950000000      14.662700000000      -0.015689118787       0.147071800478       0.061467236208
115 1       0.025010000000       2.025090000000      16.581750000000      -0.031509935029       0.242770766861       0.100595316396
116 1       8.293040000000       6.260860000000       8.369910000000       0.173859563371      -0.270752014536       0.141572843993
117 1       0.032540000000       8.231330000000      14.597330000000       0.179018026632       0.142569298611      -0.152934720701
118 1       8.156810000000       8.209600000000      10.520620000000       0.162792655623       0.151141898375      -0.011116840162
119 1       4.231690000000       6.311340000000      12.654140000000      -0.079973434709       0.034012895883       0.022953110971
120 1       4.128380000000       1.937780000000      12.558830000000      -0.137922115635      -0.010122120091      -0.054853224716
121 1       6.344080000000       1.958760000000      14.628150000000       0.144674972252       0.289900284988       0.057392718420
122 1       1.977110000000       6.176150000000      10.355150000000      -0.053231464952      -0.166120442481       0.030849719693
123 1       2.054370000000       3.990080000000      12.384560000000       0.032615702276      -0.028663729641      -0.045554605697
124 1       6.204640000000       4.176410000000      12.625560000000       0.018976157299      -0.236140518267      -0.267501967298
125 1       6.077620000000       0.107700000000       8.476390000000      -0.084873888763       0.124559323703       0.093216668795
126 1       2.215690000000       0.034590000000      16.601180000000      -0.124973660852       0.039376893149       0.069783970552
127 1       6.262340000000       6.297830000000      10.473670000000       0.031027048487      -0.121763974107       0.145916299802
128 1       2.077670000000       1.863640000000      14.515790000000      -0.269941551458       0.113483881671      -0.229730755701
129 1       2.260820000000       2.007420000000      18.884730000000      -0.052137877571      -0.105015272672       0.044674557195
130 1       6.307310000000       6.279130000000      22.847100000000      -0.200980458756      -0.058294895398       0.065677377044
131 1       4.306760000000       0.030420000000      22.897790000000       0.032418028838      -0.171265796241       0.076240474473
132 1       4.354270000000       0.072950000000      18.712350000000      -0.082004310134      -0.269526780752       0.052246877658
133 1       0.105120000000       6.311340000000      20.871700000000      -0.082369587237       0.111619504136      -0.248121195504
134 1       0.105030000000       2.065670000000      20.914940000000       0.200467914805       0.074940769840       0.113278439846
135 1       6.366160000000       4.142020000000      24.935020000000      -0.111326647586      -0.022442337798      -0.008567962904
136 1       2.093990000000       4.020070000000      16.660940000000      -0.065344573295       0.023262897948       0.062564861556
137 1       0.078090000000       4.224290000000      18.639170000000      -0.027993843697       0.194766885293      -0.193991444364
138 1       8.299600000000       4.131450000000      23.034560000000       0.121728736826       0.078548462426      -0.003472368544
139 1       4.319470000000       1.926480000000      16.747030000000      -0.028355137229       0.251708980740      -0.061502088746
140 1       4.137080000000       6.279750000000      24.933490000000      -0.191672022559      -0.080495156285      -0.186138901258
141 1       2.095740000000       0.145520000000      20.868400000000       0.049263388321       0.012126612066      -0.055857953274
142 1       6.457050000000       0.005520000000      20.782360000000      -0.000106924958      -0.283399141828      -0.152341125878
143 1       2.236320000000       6.300390000000      23.049050000000      -0.034652237272       0.026536666817      -0.021265050822
144 1       6.270720000000       1.986800000000      18.691330000000      -0.055472219570       0.096926814930      -0.025816954967
145 1       4.218120000000       4.105070000000      18.867190000000       0.073999712429       0.247088114153      -0.339433403612
146 1       4.419800000000       4.430550000000      22.693520000000      -0.089015019326      -0.028326386153       0.041195827335
147 1       8.272160000000       2.230890000000      24.983250000000       0.154315806279      -0.035093549116      -0.079099655108
148 1       0.046370000000       6.117000000000      16.764480000000       0.150253313658      -0.068222901345       0.120725977337
149 1       8.277140000000       0.153450000000      22.853590000000      -0.067605297938      -0.071230923224       0.062189888045
150 1       0.059780000000       8.302860000000      18.856120000000      -0.002378328558      -0.253672787706      -0.123164253130
151 1       4.340490000000       6.322740000000      20.875780000000       0.087083818780      -0.251247492519       0.121111924649
152 1       4.232110000000       2.190520000000      20.756380000000      -0.173355374425       0.226620212461      -0.060598110379
153 1       6.388240000000       2.229610000000      22.985320000000      -0.064121174788       0.009552660516       0.067714535089
154 1       2.143880000000       6.290340000000      18.803350000000      -0.005334529648       0.094795609042       0.039807300828
155 1       2.207530000000       4.084120000000      20.909950000000       0.092597584830      -0.061431412627       0.054871765428
156 1       6.332780000000       4.269680000000      20.871440000000      -0.277766697907       0.079816980129       0.141747133408
157 1       6.220990000000       0.008570000000      16.753060000000       0.070134801616      -0.019823375785       0.044358289825
158 1       2.059430000000       0.014330000000       0.019330000000      -0.064886217289      -0.081371493336      -0.001588958583
159 1       6.568350000000       6.423290000000      18.949850000000      -0.022686424530      -0.043545114803      -0.041780798802
160 1       2.054870000000       2.083640000000      22.850870000000       0.165596640383       0.049448830385       0.157809454287
