ITEM: TIMESTEP
0
ITEM: NUMBER OF ATOMS
40
ITEM: BOX BOUNDS pp pp pp
0.0000000000000000e+00 8.6612970950000001e+00
0.0000000000000000e+00 5.0437451920000003e+00
0.0000000000000000e+00 9.2678423920000004e+00
ITEM: ATOMS id type v_vir_xx v_vir_yy v_vir_zz v_vir_xy v_vir_xz v_vir_yz
1 2      -2.578464453744      -3.101967910078      -2.972252490277       0.697934975892       1.124823114874      -1.237463553737
2 2      -2.578483705003      -3.101954066402      -2.972257917270      -0.697893831908      -1.124897485157      -1.237402681669
3 2      -4.391774156280      -5.021640965283      -3.934764477908      -0.581464033590      -0.435725564534       0.566281493289
4 2      -4.391843692024      -5.021591237658      -3.934708595443       0.581505057753       0.435757731768       0.566251243024
5 2      -3.357070898757      -3.904521216246      -3.012370379172      -0.239780151972       0.708983831122      -0.059419895263
6 2      -3.519218420292      -4.232212568896      -4.576600764537       0.306711429179      -0.597333162849      -1.332587826480
7 2      -3.519284338235      -4.232214327771      -4.576700581797      -0.306715119720       0.597364931989      -1.332587332272
8 2      -3.357017941974      -3.904536051855      -3.012241445869       0.239696492157      -0.708973940736      -0.059468026254
9 2      -4.393336361664      -5.021524040624      -3.932052680001       0.580588296719      -0.435610378603      -0.566665961627
10 2      -4.393303331995      -5.021440616444      -3.932113215663      -0.580602767013       0.435614129584      -0.566666745623
11 2      -2.580791522068      -3.103003997453      -2.974479890712      -0.698406131592       1.124989104924       1.236215254597
12 2      -2.580724514943      -3.102807043154      -2.974447055019       0.698451754832      -1.124949086848       1.236191655002
13 2      -3.353188055566      -3.904897056915      -3.011975610707      -0.240698743948      -0.707916893106       0.058173928639
14 2      -3.515839317005      -4.234664836093      -4.578210070059      -0.306296585554      -0.596815201455       1.330737063823
15 2      -3.515823306484      -4.234741122303      -4.578222633486       0.306333311541       0.596894338128       1.330707990946
16 2      -3.353173405432      -3.904768471940      -3.011888682412       0.240747893999       0.708015579116       0.058176208489
17 1       0.679082713571       0.971301819839       0.676354947771       0.300519243716       0.676770615429      -0.707121019959
18 1       0.180880744600       0.865972965570       1.033644536895      -0.367223063973      -0.877625506147      -0.421370828984
19 1       1.236289776624       1.125176036971       0.529417337113      -0.248247262212      -0.401764485250      -0.648123863594
20 1       2.454686981945       2.570224813088       2.554109360405      -0.409558616345      -0.719962120365      -0.887130930369
21 1       0.679085926495       0.971293389183       0.676361428140      -0.300558861843      -0.676730174143      -0.707103187491
22 1       2.258609488718       1.925108214740       1.969301378784      -0.050679651530      -0.149669088793      -0.338541937680
23 1       1.236280006398       1.125072681170       0.529438893618       0.248227952276       0.401763330439      -0.648139446668
24 1       2.454727283245       2.570262901445       2.554139023294       0.409583028112       0.719877413784      -0.887114458138
25 1       2.257931158537       1.923468113417       1.969446586797      -0.050667309022       0.150135872957       0.338761040731
26 1       0.679438270980       0.967761564753       0.674866736385      -0.298912114714       0.677337608231       0.707802632372
27 1       2.452437889458       2.566814485604       2.552667313851      -0.408836639240       0.721810351294       0.887050673579
28 1       1.235886663140       1.125130097028       0.528829827668      -0.248032169475       0.401199603972       0.647530494510
29 1       0.180550450512       0.868451808200       1.034902471388      -0.368953297796       0.876534926872       0.421811525470
30 1       0.679452221334       0.967732593921       0.674901551319       0.298904192019      -0.677347099192       0.707773164356
31 1       1.416734199080       2.511944405549       2.011055964474      -0.015492215933       0.210280773487       0.154496511722
32 1       1.416067602370       2.513351970808       2.011389329931      -0.016965998370      -0.210262878169      -0.152754193589
33 1       0.180512915596       0.868523077026       1.034888914274       0.368989211508      -0.876506421777       0.421816741379
34 1       2.258632323909       1.925130039360       1.969299265085       0.050695058931       0.149676164488      -0.338534461697
35 1       1.416782855153       2.511962224463       2.011097243615       0.015531725512      -0.210264237124       0.154519435532
36 1       1.416085884316       2.513423188066       2.011443698702       0.016946262378       0.210257471372      -0.152760689755
37 1       2.257944685495       1.923479404343       1.969481281386       0.050653356307      -0.150193061341       0.338771437257
38 1       0.180895559810       0.865977074391       1.033688754405       0.367241923947       0.877610680607      -0.421337171329
39 1       2.452435740864       2.566802523727       2.552695029522       0.408839232281      -0.721790355734       0.887059523663
40 1       1.235875968659       1.125209741131       0.528867454305       0.247999729161      -0.401157042888       0.647571212632
