ITEM: TIMESTEP
0
ITEM: NUMBER OF ATOMS
30
ITEM: BOX BOUNDS xy xz yz pp pp pp
-2.5065392229999999e+00 5.0130784459999997e+00 -2.5065392229999999e+00
0.0000000000000000e+00 4.3414536989999997e+00 0.0000000000000000e+00
0.0000000000000000e+00 1.3495566058000000e+01 0.0000000000000000e+00
ITEM: ATOMS id type v_vir_xx v_vir_yy v_vir_zz v_vir_xy v_vir_xz v_vir_yz
1 2      -4.586134489475      -4.586087154044      -3.829291939273      -0.000003473050      -0.000018850948       0.000005931382
2 2      -4.586159892389      -4.586119650714      -3.829377296588      -0.000025062817       0.000011824144      -0.000000997662
3 2      -4.586116458568      -4.586024517447      -3.829283152201      -0.000005469041      -0.000027591735       0.000009637746
4 2      -4.586077251160      -4.586118911179      -3.829238193076      -0.000022276822      -0.000019212342      -0.000008315131
5 2      -4.586222389283      -4.586176599281      -3.829509430092      -0.000009531961       0.000001208152      -0.000002465119
6 2      -4.586062882671      -4.586096063817      -3.829224504949       0.000014399724      -0.000018492782       0.000002453559
7 2      -4.586184458913      -4.586199069639      -3.829474926632      -0.000000603461       0.000003908410       0.000001243902
8 2      -4.586117344805      -4.586134676117      -3.829346773793       0.000014592677       0.000010827121       0.000014782686
9 2      -4.586080250353      -4.586104684450      -3.829246167087      -0.000019224998       0.000001217038      -0.000001349929
10 2      -4.586117324009      -4.586040945715      -3.829364083288       0.000024234511       0.000011616804       0.000018822930
11 2      -4.586066855969      -4.586065123150      -3.829211413253      -0.000001160961      -0.000005670568      -0.000003486652
12 2      -4.586195865999      -4.586115626440      -3.829350354975      -0.000006953297       0.000015895118       0.000001145309
13 1       1.895069258362       2.732605343859       1.934478498346      -0.725317857676       0.434375567557       0.250787778258
14 1       3.151403391167       1.476328902818       1.934475896663      -0.000004843900       0.000008836368      -0.501604886242
15 1       1.895119245905       2.732646948685       1.934478742358       0.725328259418      -0.434391186266       0.250813691484
16 1       1.895032236674       2.732575326302       1.934479844727      -0.725328597762       0.434368278286       0.250796319485
17 1       1.895030130319       2.732588889768       1.934474887105       0.725334622887      -0.434366537218       0.250798900208
18 1       3.151391202154       1.476255274273       1.934486949123       0.000001843398       0.000006485711      -0.501593226889
19 1       1.895045625068       2.732611403134       1.934464963718      -0.725319844100       0.434367157216       0.250790738149
20 1       3.151367586326       1.476275709647       1.934483816772      -0.000022195353       0.000002879583      -0.501574324621
21 1       1.895070000361       2.732570537227       1.934460647187       0.725338558715      -0.434369110032       0.250781452609
22 1       1.895027521406       2.732666066813       1.934492390636      -0.725291440164       0.434376652417       0.250813607026
23 1       1.895148605719       2.732575836581       1.934480187132       0.725377189651      -0.434395737428       0.250760801691
24 1       3.151360171724       1.476312275598       1.934469518615      -0.000065927597       0.000022403414      -0.501570842072
25 1       1.895143423073       2.732594917692       1.934451063950      -0.725337229636       0.434384775524       0.250780098620
26 1       3.151396642449       1.476350611434       1.934465256677       0.000049774193      -0.000021307167      -0.501603846993
27 1       1.895058882039       2.732667125107       1.934474157463       0.725306914906      -0.434367340164       0.250818744010
28 1       1.895079988892       2.732638811670       1.934488289635      -0.725338469865       0.434383059536       0.250803488944
29 1       1.895063257031       2.732611186581       1.934489750974       0.725324747703      -0.434374538039       0.250786063449
30 1       3.151350386062       1.476299170260       1.934482616475       0.000014211297      -0.000014635983      -0.501578074414
