ITEM: TIMESTEP
0
ITEM: NUMBER OF ATOMS
30
ITEM: BOX BOUNDS xy xz yz pp pp pp
-2.5065392229999999e+00 5.0130784459999997e+00 -2.5065392229999999e+00
0.0000000000000000e+00 4.3414536989999997e+00 0.0000000000000000e+00
0.0000000000000000e+00 1.3495566058000000e+01 0.0000000000000000e+00
ITEM: ATOMS id type x y z fx fy fz
1 2       0.000000000000       0.000000000000       1.945240000000       0.000036065011      -0.000018490444      -0.010866612631
2 2       0.000000000000       2.894300000000       0.304020000000       0.000027104547       0.000025159916       0.010915645957
3 2       2.506540000000       1.447150000000       2.553280000000      -0.000034355130       0.000032887689       0.010814586958
4 2       0.000000000000       2.894300000000       4.194510000000      -0.000020505265       0.000060685654      -0.010889602209
5 2       2.506540000000       1.447150000000       6.443760000000      -0.000030686469       0.000005173479      -0.010784700935
6 2       0.000000000000       0.000000000000       4.802540000000      -0.000034160509       0.000003369958       0.010906491472
7 2       0.000000000000       2.894300000000       7.051810000000      -0.000017031392       0.000031536293       0.010815313316
8 2       0.000000000000       0.000000000000       8.693020000000      -0.000011488370      -0.000022885530      -0.010836078218
9 2       0.000000000000       2.894300000000      10.942290000000       0.000000103435       0.000047094492      -0.010917550431
10 2       2.506540000000       1.447150000000       9.301060000000      -0.000008184217       0.000043968906       0.010841561784
11 2       0.000000000000       0.000000000000      11.550320000000      -0.000029744804      -0.000004873019       0.010870666553
12 2       2.506540000000       1.447150000000      13.191540000000      -0.000036832969      -0.000000129155      -0.010735474160
13 1       4.253580000000       1.315490000000       3.373890000000       0.012564017708      -0.021712608240       0.000072725475
14 1       1.518990000000       0.000000000000       3.373890000000      -0.025008370748      -0.000022461750       0.000081759645
15 1       1.747040000000       3.025970000000       3.373890000000       0.012525287776       0.021654647666       0.000043371612
16 1       3.266040000000       0.131660000000       1.124630000000      -0.012574101407       0.021770381825      -0.000004292587
17 1       3.266040000000       2.762640000000       1.124630000000      -0.012600258579      -0.021748087508       0.000029994751
18 1       0.987550000000       1.447150000000       1.124630000000       0.025038804320      -0.000001364473       0.000014797413
19 1       1.747040000000       2.762640000000       7.872410000000       0.012594174110      -0.021734672576       0.000081763364
20 1       4.025530000000       1.447150000000       7.872410000000      -0.025053780036      -0.000030849297       0.000063017677
21 1       1.747040000000       0.131660000000       7.872410000000       0.012523218794       0.021791083715       0.000055484403
22 1       0.759500000000       1.578820000000       5.623160000000      -0.012671084623       0.021596206653      -0.000159289569
23 1       0.759490000000       4.209790000000       5.623160000000      -0.012394515561      -0.021737112936      -0.000162199339
24 1      -1.519000000000       2.894300000000       5.623160000000       0.025133203144       0.000092000811      -0.000135158568
25 1      -0.759500000000       4.209790000000      12.370940000000       0.012523861382      -0.021713079591      -0.000076516614
26 1       1.518990000000       2.894300000000      12.370940000000      -0.025010428762       0.000094285111      -0.000116598320
27 1      -0.759500000000       1.578820000000      12.370940000000       0.012615309063       0.021582680934      -0.000138866787
28 1      -1.747040000000       3.025970000000      10.121670000000      -0.012555693894       0.021646734526       0.000046412372
29 1       0.759500000000       1.315490000000      10.121670000000      -0.012614017707      -0.021706267224       0.000079153389
30 1       3.494080000000       0.000000000000      10.121670000000       0.025124091153      -0.000025015886       0.000090194226
