ITEM: TIMESTEP
0
ITEM: NUMBER OF ATOMS
20
ITEM: BOX BOUNDS xy xz yz pp pp pp
-1.3680182642520000e+00 1.2261079958731001e+01 0.0000000000000000e+00
0.0000000000000000e+00 3.0363493980000000e+00 -1.3680182642520000e+00
0.0000000000000000e+00 5.6212445083949998e+00 0.0000000000000000e+00
ITEM: ATOMS id type c_pe_atom
1 2      -4.703447672337
2 2      -4.703444172740
3 2      -4.164594665434
4 2      -4.164580602746
5 2      -4.703453063877
6 2      -4.703447474865
7 2      -4.164588077430
8 2      -4.164578875882
9 1     -11.339354929319
10 1     -11.339354555643
11 1     -11.117537898180
12 1     -11.117541964704
13 1     -11.263453651849
14 1     -11.263454070788
15 1     -11.339353060410
16 1     -11.339363099947
17 1     -11.117534067796
18 1     -11.117540084046
19 1     -11.263444668589
20 1     -11.263445306592
