ITEM: TIMESTEP
0
ITEM: NUMBER OF ATOMS
160
ITEM: BOX BOUNDS pp pp pp
0.0000000000000000e+00 8.4545245520000005e+00
0.0000000000000000e+00 8.4545245520000005e+00
0.0000000000000000e+00 2.5363573656000000e+01
ITEM: ATOMS id type x y z fx fy fz
1 2       1.225180000000       5.248320000000      22.310140000000      -0.145968713222       0.127187027341      -0.059113324870
2 2       5.253960000000       0.854410000000      13.805530000000      -0.146391236754      -0.035383802514      -0.022176031047
3 2       7.228430000000       7.475610000000       7.458650000000      -0.140758035520       0.045868856305      -0.032352310535
4 2       7.359250000000       7.203140000000      15.920560000000       0.002152470419       0.015908226900       0.014285938819
5 2       5.277700000000       5.298300000000       0.991810000000       0.152646771828       0.254921016524       0.003086879818
6 2       3.060310000000       3.235070000000       7.278030000000       0.035628388018      -0.119078672331      -0.017968861046
7 2       0.963090000000       1.057180000000       1.096290000000      -0.116345283938       0.064626230991      -0.035293908313
8 2       5.219880000000       1.035830000000       5.292360000000       0.020955557482       0.173887017892       0.024837290997
9 2       3.214030000000       2.997060000000      15.808680000000      -0.047954792318      -0.005367882028       0.031250382283
10 2       5.435640000000       1.128730000000      22.123970000000      -0.096132072200       0.081365111642       0.044894974342
11 2       3.172040000000       7.325290000000      11.625660000000      -0.078672769306      -0.033026494605      -0.003421207936
12 2       7.496320000000       3.230010000000      20.003680000000       0.117147925163      -0.281159964375      -0.031188506651
13 2       1.031020000000       5.148380000000      13.614670000000      -0.003781998272       0.130602462588      -0.043508536658
14 2       7.396890000000       3.253950000000       3.235880000000      -0.174235085966      -0.271574424907      -0.016882775324
15 2       5.146050000000       5.378990000000       9.465800000000      -0.055413473548       0.158518016771       0.017326348982
16 2       7.432730000000       7.515160000000      24.333410000000      -0.056471449901      -0.187163003741       0.021202400485
17 2       3.223550000000       7.522980000000      20.117270000000      -0.073338783612      -0.044958303249       0.019327674960
18 2       0.924020000000       1.083660000000       9.618510000000       0.097301472206       0.005889707431      -0.012674394570
19 2       3.256460000000       7.496550000000       3.134470000000       0.091732064319      -0.037868502307      -0.009981561260
20 2       1.191310000000       1.041960000000      17.992750000000      -0.130512800888       0.042859761369       0.017511707088
21 2       3.974540000000       0.188250000000       8.465000000000       0.205067863521      -0.202064957964       0.005884094789
22 2       6.194970000000       6.175830000000      12.659420000000       0.044576298686      -0.036833469108      -0.044113515374
23 2       2.181820000000       2.148970000000      21.151790000000       0.051005852813      -0.070173500448       0.080832224427
24 2       6.470660000000       6.362210000000      21.110700000000       0.023393706115      -0.143379291053       0.066750040004
25 2       1.984960000000       6.466700000000       8.367550000000      -0.061897943617       0.031025665526       0.033141427437
26 2       8.400250000000       2.084620000000       6.302520000000       0.258005049253       0.132447967357      -0.253724968652
27 2       2.014890000000       2.118890000000       4.264680000000      -0.151514053454       0.214898972538       0.091708768346
28 2       0.058370000000       2.035570000000      14.765830000000       0.034230583200       0.152423208157       0.067437514163
29 2       0.162350000000       6.268290000000      18.975420000000       0.006140416217      -0.107705990756      -0.123152926607
30 2       6.330710000000       0.055710000000       2.122630000000       0.021975128202      -0.026973439275      -0.004968170260
31 2       6.154630000000       0.071970000000      10.629600000000       0.039067368975      -0.040613591233       0.060648897175
32 2       4.209960000000       2.218430000000      18.975070000000       0.112674609205      -0.087470527011      -0.154103658032
33 2       6.473540000000       8.423860000000      19.032710000000       0.104817780625       0.098047082713      -0.078656648895
34 2       6.419060000000       2.061810000000      16.887010000000      -0.000941408046       0.007501675055       0.193554536385
35 2       0.162860000000       2.080950000000      23.308470000000      -0.073419845914       0.132920948347       0.149371114171
36 2       2.059380000000       8.245130000000      14.886970000000      -0.084742369043       0.003465276007      -0.096858431016
37 2       4.047050000000       6.090360000000      14.802460000000       0.194212527407       0.157651204997       0.108490159983
38 2       6.296820000000       4.241350000000       6.374020000000      -0.034126169519      -0.015038510797      -0.202833547136
39 2       4.255450000000       6.442680000000      23.289160000000      -0.116934070220      -0.145744344076       0.205151512163
40 2       0.097920000000       4.226760000000      16.902110000000      -0.080402767713       0.053071105456       0.259721922380
41 2       2.104500000000       4.281580000000       2.113080000000       0.018624146553      -0.028561422668      -0.002258753313
42 2       4.167840000000       4.351410000000      21.081040000000       0.026840218417      -0.062748972848       0.050538811481
43 2       4.178400000000       8.264040000000      16.969050000000       0.090146102602       0.065399716327       0.150219563491
44 2       6.376690000000       4.280200000000      23.191030000000       0.054607961424      -0.084051028241       0.095657355501
45 2       8.391910000000       6.278380000000      10.542050000000       0.001830089756       0.038644991382       0.177289297379
46 2       8.440930000000       8.377250000000      12.710720000000       0.026761192896      -0.105341365051      -0.222885399764
47 2       0.019930000000       4.322240000000       0.045760000000      -0.079202576210       0.051843177027      -0.135095942324
48 2       6.272730000000       4.103130000000      14.766640000000       0.131382063743       0.047215818393      -0.065683832101
49 2       4.189150000000       4.229650000000       4.181180000000       0.091017332313      -0.049056863512       0.148917714745
50 2       2.143200000000       2.053320000000      12.611140000000      -0.151830467345       0.255755721172      -0.151557156846
51 2       2.111030000000       4.156670000000      10.585210000000      -0.198585657408      -0.201104216218       0.096935918891
52 2       0.039810000000       6.502000000000       2.215810000000       0.049759424048       0.033867498917      -0.075600929430
53 2       0.204820000000       8.414970000000      21.236340000000      -0.028260273738      -0.152116052672      -0.138046814456
54 2       4.161540000000       2.052010000000       2.004320000000      -0.081534404086      -0.023547882892       0.043466346513
55 2       6.265680000000       2.067760000000      25.314850000000       0.067154775944       0.080877278892      -0.143211171216
56 2       8.435120000000       4.172080000000       8.453360000000      -0.063519152577       0.076236823955      -0.018154463222
57 2       6.139830000000       2.182070000000       8.555500000000      -0.056439241309       0.068904454801      -0.094458698674
58 2       4.061400000000       6.482900000000       6.285430000000       0.068722633543      -0.058870193762      -0.098487546722
59 2       6.397680000000       6.489900000000       4.284770000000      -0.067086795916      -0.096945492785       0.129032055216
60 2       2.201990000000       6.444190000000      25.335780000000       0.161224457963      -0.202195747851      -0.140409424233
61 2       5.207280000000       3.148290000000      11.667330000000      -0.087528191915      -0.079417453038       0.004066050537
62 2       3.208090000000       1.075970000000      24.282450000000       0.068068653366      -0.038152552766       0.005004345545
63 2       3.192000000000       5.222050000000      17.958600000000      -0.085658212475       0.067471490506       0.008469813460
64 2       0.997270000000       7.474670000000       5.281980000000       0.003573279424       0.041755449633       0.003373532567
65 1       2.142230000000       2.158850000000       2.136890000000       0.067694762907       0.052128031918      -0.075235229615
66 1       6.213730000000       6.286890000000       6.302860000000       0.044901698242       0.021866628394       0.004475891929
67 1       4.309580000000       8.379530000000       6.490600000000      -0.019751440729       0.108776747797       0.024395775298
68 1       4.350150000000       0.131330000000       2.126650000000       0.106821672757      -0.040973701967      -0.000045536366
69 1       8.328330000000       6.449020000000       4.153110000000       0.062181166864      -0.032020417008       0.082090278233
70 1       0.037600000000       2.224110000000       4.318560000000       0.123498516175       0.008340556222       0.153215805165
71 1       6.244760000000       4.198400000000       8.426790000000       0.243675174158      -0.091845750354       0.072438130734
72 1       1.908700000000       4.496030000000       0.249760000000       0.012487098618       0.187861370508      -0.033906139339
73 1       8.441570000000       4.396150000000       2.100790000000       0.151420950074       0.060184071548      -0.003193495067
74 1       8.176480000000       4.039450000000       6.592210000000      -0.005825951511      -0.166274985272      -0.026157089469
75 1       4.333820000000       2.100700000000       0.063160000000      -0.077533154288       0.017694163203      -0.038359379404
76 1       4.053220000000       6.433550000000       8.320860000000       0.018261839107       0.135870918559      -0.076820560041
77 1       2.128520000000       0.079790000000       4.213040000000       0.015117526114      -0.068076703039      -0.039020143777
78 1       6.194970000000       8.395940000000       4.125960000000       0.000157316285       0.087447813589      -0.085095447154
79 1       2.126120000000       6.478090000000       6.423540000000      -0.067711288160      -0.006369394153      -0.062287760582
80 1       6.281080000000       2.137950000000       2.050070000000       0.059044506750       0.065358481160       0.071190284117
81 1       4.226210000000       4.158500000000       2.122690000000      -0.176176745085      -0.071012592373       0.020047921687
82 1       4.259960000000       4.369840000000       6.223910000000      -0.123124304085       0.011792552408       0.057145204261
83 1       8.256230000000       2.119360000000       8.447100000000      -0.038593261487       0.047466480365       0.008417292964
84 1       0.041130000000       6.364680000000       0.084680000000       0.112470912431       0.024426602463      -0.050530954457
85 1       8.314050000000       0.066100000000       6.362640000000       0.013548476066      -0.009996119449       0.012970101781
86 1       8.314360000000       8.425270000000       2.099340000000      -0.120630781048       0.042935482942       0.014940386428
87 1       4.276790000000       6.288480000000       4.278140000000      -0.107175962442       0.081313046723       0.028994726727
88 1       4.162060000000       2.186930000000       4.152290000000      -0.067692653119      -0.033357470945       0.022557166432
89 1       6.312780000000       2.179150000000       6.407390000000      -0.029831257962      -0.061100046848      -0.008362215915
90 1       2.072030000000       6.399860000000       2.087840000000      -0.017816231986      -0.038711513152       0.106268195043
91 1       2.301810000000       4.067520000000       3.974070000000      -0.007209822597      -0.202004103967       0.050494145268
92 1       6.216910000000       4.361650000000       4.315100000000       0.082746049943       0.075893619499      -0.073492660796
93 1       6.456480000000       0.158160000000       0.113380000000       0.012087144320      -0.064237808632       0.058434076467
94 1       2.067950000000       8.405570000000       8.629530000000       0.062998287693       0.007703984643      -0.052264911443
95 1       6.381790000000       6.419810000000       2.177890000000      -0.063556489369      -0.052602748614      -0.024911907666
96 1       1.925070000000       2.208190000000       6.217070000000      -0.091662130132       0.018019838904      -0.006041691655
97 1       2.011380000000       2.181290000000      10.653570000000      -0.020619068990       0.078894310264       0.056426390597
98 1       6.263150000000       6.174460000000      14.724580000000      -0.146686515065       0.011274100066       0.031598694651
99 1       4.148970000000       8.269060000000      14.938560000000       0.033561879654      -0.126374857256       0.106576452460
100 1       4.260020000000       8.268690000000      10.430210000000      -0.115371744608       0.031270825552      -0.002768835638
101 1       8.307100000000       6.346430000000      12.581750000000       0.029080613983      -0.111769662564       0.026747420644
102 1       0.187360000000       1.796760000000      12.899770000000       0.202792883121      -0.018214130554      -0.000499992571
103 1       6.623570000000       3.926650000000      16.647590000000       0.080581963470      -0.059855940716       0.043504733162
104 1       2.044090000000       4.351330000000       8.460150000000      -0.042655759070       0.040379163785      -0.019345047741
105 1       0.141960000000       4.403510000000      10.314380000000       0.203363137853       0.006050102890       0.058508889923
106 1       0.010750000000       4.054550000000      14.802220000000      -0.206707867146      -0.159662910531      -0.077340952462
107 1       4.197090000000       2.099760000000       8.278140000000      -0.007608213907      -0.090818136947       0.059871525590
108 1       4.138690000000       6.350820000000      16.782420000000      -0.050380073012      -0.104734754023      -0.129405856358
109 1       2.049230000000       8.414210000000      12.737300000000       0.037362125856       0.004408812764       0.020872191427
110 1       6.392540000000       8.291960000000      12.634300000000       0.007121307817       0.110155443773       0.016768165162
111 1       2.126410000000       6.317650000000      14.617440000000       0.090399040411      -0.011399328827       0.057201645902
112 1       6.157710000000       2.011910000000      10.492680000000       0.007170707344       0.048792791636       0.067959834909
113 1       4.142980000000       4.275150000000      10.576920000000       0.040734807830       0.013659395886      -0.034659105951
114 1       4.318960000000       4.180200000000      14.902650000000      -0.003238120432       0.011695651414      -0.007812889708
115 1       0.032910000000       2.049380000000      16.803560000000       0.051601429211       0.070653268041       0.042819601510
116 1       8.416030000000       6.361060000000       8.484020000000       0.080720549212      -0.240479399208      -0.060142187242
117 1       0.045830000000       8.330260000000      14.799390000000       0.183507186617       0.112137066792       0.015925747350
118 1       8.265910000000       8.323790000000      10.673460000000      -0.008036892344       0.129905462620      -0.031796265543
119 1       4.299710000000       6.424710000000      12.833620000000      -0.111887033474      -0.013091817098       0.042069377906
120 1       4.193290000000       1.964840000000      12.734370000000       0.075213033937       0.019377382136       0.004294210968
121 1       6.434080000000       1.979480000000      14.826190000000       0.026091172451       0.112709357178      -0.042172240716
122 1       2.011530000000       6.260060000000      10.503640000000       0.067914911355       0.001981420657       0.022875668353
123 1       2.049030000000       4.034950000000      12.541880000000      -0.028134328583      -0.106476818348       0.018769215457
124 1       6.244560000000       4.244100000000      12.808190000000       0.019788023162      -0.088519265931      -0.066050842630
125 1       6.172190000000       0.110240000000       8.593710000000      -0.122464402563      -0.032573326063       0.077824842061
126 1       2.253300000000       0.063040000000      16.811920000000      -0.059487541098      -0.012976669771       0.002598761316
127 1       6.350980000000       6.374720000000      10.618090000000      -0.003908810139      -0.036448519295      -0.035102703318
128 1       2.117980000000       1.899050000000      14.714730000000      -0.026829784519      -0.026919350305      -0.026708255091
129 1       2.297080000000       2.010980000000      19.143010000000      -0.050813843424      -0.028821732263       0.014479904697
130 1       6.394630000000       6.372410000000      23.154260000000      -0.042200606822       0.086889605483       0.080459138185
131 1       4.364690000000       0.037990000000      23.202490000000       0.000868732354       0.074027349331       0.026244381055
132 1       4.413820000000       0.066480000000      18.955600000000      -0.085179679941      -0.039747296472      -0.060769292717
133 1       0.115190000000       6.406190000000      21.170610000000       0.095380593693       0.170853635027      -0.058352764621
134 1       0.115990000000       2.095730000000      21.197680000000      -0.039383449629       0.028461936810      -0.003671192672
135 1       6.453930000000       4.195690000000      25.267290000000      -0.056380223640      -0.077837635812       0.076300415654
136 1       2.124650000000       4.076930000000      16.891370000000       0.087534658964      -0.019750385748       0.043795142766
137 1       0.047020000000       4.295510000000      18.880770000000      -0.017121732373       0.111192913900      -0.084191152912
138 1       8.415010000000       4.180890000000      23.356050000000       0.117093036685       0.000074105447       0.003087781287
139 1       4.383580000000       1.963500000000      16.984050000000      -0.080154736232       0.046133208648       0.044061835337
140 1       4.186670000000       6.327430000000      25.262730000000      -0.157559315736      -0.014697551162      -0.079000533005
141 1       2.110980000000       0.145280000000      21.121110000000       0.024710758613       0.121388577380       0.019982130300
142 1       6.542430000000       0.019070000000      21.062010000000       0.069791820105      -0.116865130353      -0.150587255341
143 1       2.282500000000       6.350210000000      23.381300000000       0.023833600018      -0.017084068216      -0.066158712418
144 1       6.356700000000       2.016330000000      18.938120000000      -0.093427054834       0.162485119312       0.071979724864
145 1       4.229900000000       4.153410000000      19.135400000000       0.024223031040       0.050625345409      -0.100294080616
146 1       4.518450000000       4.513880000000      22.967740000000       0.011180876712       0.133404357239       0.054411094405
147 1       8.389550000000       2.264050000000      25.316370000000       0.119133286085      -0.095348865553      -0.035726647037
148 1       0.010460000000       6.187250000000      17.000660000000       0.008728604802      -0.003447544891       0.084117320654
149 1       8.364320000000       0.164750000000      23.149970000000       0.003713538321      -0.051974785369       0.023512247642
150 1       0.058850000000       8.420440000000      19.100930000000       0.014117157415      -0.116951806447      -0.021840425693
151 1       4.392490000000       6.412190000000      21.152320000000      -0.016442313379       0.018595842195      -0.059578585616
152 1       4.286960000000       2.220430000000      21.033370000000       0.066239554221       0.044186706512       0.050109402630
153 1       6.468310000000       2.265150000000      23.299600000000      -0.016043860280       0.027878756692      -0.017439371101
154 1       2.170460000000       6.374090000000      19.057010000000      -0.030056388794       0.018113143709      -0.028822184295
155 1       2.245580000000       4.123180000000      21.239260000000       0.084164420749      -0.108608366172      -0.008644766014
156 1       6.441750000000       4.339020000000      21.151370000000      -0.312660569998       0.141610820025      -0.013432200066
157 1       6.302540000000       0.005180000000      16.985160000000      -0.036921048934      -0.121303380997      -0.052829363714
158 1       2.092040000000       0.017080000000       0.015680000000      -0.036273156966       0.056927836395       0.026702414850
159 1       6.682530000000       6.543430000000      19.243170000000       0.124851079350       0.022237794980       0.016378607872
160 1       2.073050000000       2.067080000000      23.153650000000       0.034398919324      -0.021546254956      -0.066604666567
