ITEM: TIMESTEP
0
ITEM: NUMBER OF ATOMS
20
ITEM: BOX BOUNDS xy xz yz pp pp pp
-1.3930429887389999e+00 1.2485368007372999e+01 0.0000000000000000e+00
0.0000000000000000e+00 3.0918923750000000e+00 -1.3930429887389999e+00
0.0000000000000000e+00 5.7240721521460003e+00 0.0000000000000000e+00
ITEM: ATOMS id type x y z fx fy fz
1 2       1.540698391800       1.545950000000       1.797125619623      -0.089026555951      -0.000052765631      -0.183076270300
2 2       3.308938095952       0.000000000000       3.926951855976       0.089180794273       0.000052765568       0.182980487344
3 2       0.015625432918       0.000000000000       4.549013673484      -0.025012632100       0.000053034919       0.003370658578
4 2       4.834013419474       1.545950000000       1.175054085712       0.025180676361      -0.000053033315      -0.003168975065
5 2       7.783379424698       0.000000000000       1.797124547740      -0.089013846795       0.000052765562      -0.183049041100
6 2       9.551628845252       1.545950000000       3.926953148733       0.089043980746      -0.000052765511       0.182933233207
7 2       6.258316182218       1.545950000000       4.549014966241      -0.025205128418      -0.000053033329       0.003302362664
8 2      11.076694452371       0.000000000000       1.175053013829       0.025175354615       0.000053033319      -0.003163982176
9 1       5.834145565291       0.000000000000       1.468635155611       0.004224309326       0.000065416446       0.038140721514
10 1      -0.984496996496       1.545950000000       4.255434968225      -0.004381326349      -0.000065417901      -0.038164957539
11 1       1.381743564840       0.000000000000       3.229973727374      -0.038413052899       0.000023058083       0.066313011278
12 1       3.467905003955       1.545950000000       2.494096396462       0.038310755290      -0.000023058142      -0.066185782461
13 1       2.959622156192       1.545950000000       5.099813271119      -0.012545164569      -0.000051999652      -0.003424123374
14 1       1.890024047963       0.000000000000       0.624266569120       0.012462524089       0.000051999717       0.003210441473
15 1      12.076826598188       1.545950000000       1.468634083728       0.004287575496      -0.000065416299       0.038154617306
16 1       5.258184036401       0.000000000000       4.255433896342      -0.004311572307       0.000065416314      -0.038140022343
17 1       7.624424597737       1.545950000000       3.229972655491      -0.038324112532      -0.000023058065       0.066288862124
18 1       9.710586036852       0.000000000000       2.494095324579       0.038354526699       0.000023058075      -0.066157271139
19 1       9.202303189089       0.000000000000       5.099812199236      -0.012506955394       0.000051999579      -0.003436069299
20 1       8.132705080861       1.545950000000       0.624265497237       0.012519850417      -0.000051999735       0.003272099307
