ITEM: TIMESTEP
0
ITEM: NUMBER OF ATOMS
80
ITEM: BOX BOUNDS pp pp pp
0.0000000000000000e+00 9.2415475530000002e+00
0.0000000000000000e+00 9.2415475530000002e+00
0.0000000000000000e+00 9.2415475530000002e+00
ITEM: ATOMS id type c_pe_atom
1 2      -4.989058449798
2 2      -4.904482925768
3 2      -4.904472936534
4 2      -4.904473816399
5 2      -4.904472936534
6 2      -4.904477713434
7 2      -4.904473816399
8 2      -4.989058449798
9 2      -4.989054891403
10 2      -4.989058449798
11 2      -4.904477713434
12 2      -4.904473816399
13 2      -4.904482925768
14 2      -4.904477713434
15 2      -4.904482925768
16 2      -4.904472936534
17 2      -4.989062009078
18 2      -4.904475549689
19 2      -4.904487825620
20 2      -4.904484659143
21 2      -4.904487825620
22 2      -4.904483049147
23 2      -4.904484659143
24 2      -4.989062009078
25 2      -4.989065568100
26 2      -4.989062009078
27 2      -4.904483049147
28 2      -4.904484659143
29 2      -4.904475549689
30 2      -4.904483049147
31 2      -4.904475549689
32 2      -4.904487825620
33 1     -10.848472039868
34 1     -10.848482878486
35 1     -10.848458648622
36 1     -10.848481511121
37 1     -10.848460413011
38 1     -10.848466691279
39 1     -10.848458648622
40 1     -10.848460413011
41 1     -10.848466691279
42 1     -10.848484783124
43 1     -10.848458648622
44 1     -10.848472039868
45 1     -10.848490527532
46 1     -10.848460413011
47 1     -10.848482878486
48 1     -10.848481511121
49 1     -10.848484783124
50 1     -10.848490527532
51 1     -10.848484783124
52 1     -10.848482878486
53 1     -10.848472039868
54 1     -10.848490527532
55 1     -10.848481511121
56 1     -10.848466691279
57 1     -10.848478264976
58 1     -10.848480765421
59 1     -10.848489396363
60 1     -10.848470799326
61 1     -10.848482822282
62 1     -10.848472279845
63 1     -10.848489396363
64 1     -10.848482822282
65 1     -10.848472279845
66 1     -10.848474596213
67 1     -10.848489396363
68 1     -10.848478264976
69 1     -10.848464040780
70 1     -10.848482822282
71 1     -10.848480765421
72 1     -10.848470799326
73 1     -10.848474596213
74 1     -10.848464040780
75 1     -10.848474596213
76 1     -10.848480765421
77 1     -10.848478264976
78 1     -10.848464040780
79 1     -10.848470799326
80 1     -10.848472279845
