ITEM: TIMESTEP
0
ITEM: NUMBER OF ATOMS
20
ITEM: BOX BOUNDS xy xz yz pp pp pp
-1.3902624638979999e+00 1.2460447112405999e+01 0.0000000000000000e+00
0.0000000000000000e+00 3.0857209330000002e+00 -1.3902624638979999e+00
0.0000000000000000e+00 5.7126468587139998e+00 0.0000000000000000e+00
ITEM: ATOMS id type v_vir_xx v_vir_yy v_vir_zz v_vir_xy v_vir_xz v_vir_yz
1 2      -1.062084159145      -0.387015616077      -3.408187265334      -0.000000406776       0.441371276829      -0.000000890120
2 2      -1.062141921075      -0.387001333018      -3.408169327227      -0.000000406590       0.441392217637      -0.000000889344
3 2      -2.699008776506      -2.662614656527      -0.993455678647       0.000002943464       0.070316740373       0.000000834750
4 2      -2.699000619859      -2.662591491799      -0.993330533977       0.000002943347       0.070338938888       0.000000835440
5 2      -1.062048967117      -0.387007871980      -3.408163496880       0.000000406480       0.441387429931       0.000000890008
6 2      -1.062024510591      -0.386969249864      -3.408038917050       0.000000406538       0.441337314890       0.000000890186
7 2      -2.698968987873      -2.662588076459      -0.993336118479      -0.000002943625       0.070308071067      -0.000000834910
8 2      -2.699045468111      -2.662654385336      -0.993383908396      -0.000002943774       0.070312842740      -0.000000834880
9 1       1.450880319459       0.272782134704      -0.140385528334       0.000004235758       0.444378671630       0.000001324443
10 1       1.450841173193       0.272748803119      -0.140400131896       0.000004235665       0.444387519103       0.000001324212
11 1       1.581406129542       1.265509088104       2.837995511109       0.000001368392      -0.256926013695       0.000000242678
12 1       1.581450378630       1.265544336696       2.837994293766       0.000001368310      -0.256917429668       0.000000242774
13 1       0.591012930654       1.484643184967       1.638003740762       0.000000727960      -0.620266685168      -0.000001012072
14 1       0.591042645670       1.484673370205       1.637880379259       0.000000727850      -0.620314056934      -0.000001012204
15 1       1.450799015638       0.272677541491      -0.140403353026      -0.000004235754       0.444377621935      -0.000001324255
16 1       1.450866255879       0.272783841640      -0.140371660013      -0.000004235758       0.444400149635      -0.000001324417
17 1       1.581417299957       1.265516242228       2.837990704674      -0.000001368207      -0.256916266184      -0.000000242676
18 1       1.581342253029       1.265468576825       2.837935331026      -0.000001368319      -0.256893200914      -0.000000242475
19 1       0.591028505324       1.484649935701       1.637874870159      -0.000000727886      -0.620285374489       0.000001012188
20 1       0.591008723565       1.484616832265       1.637952357351      -0.000000727801      -0.620257416683       0.000001012083
