ITEM: TIMESTEP
0
ITEM: NUMBER OF ATOMS
20
ITEM: BOX BOUNDS xy xz yz pp pp pp
-1.3902624638979999e+00 1.2460447112405999e+01 0.0000000000000000e+00
0.0000000000000000e+00 3.0857209330000002e+00 -1.3902624638979999e+00
0.0000000000000000e+00 5.7126468587139998e+00 0.0000000000000000e+00
ITEM: ATOMS id type x y z fx fy fz
1 2       1.537552862147       1.542860000000       1.794445816792      -0.003485401075       0.000004284695       0.068003197078
2 2       3.302402673938       0.000000000000       3.918198213359       0.003470154001      -0.000004284403      -0.067957931259
3 2       0.015287748894       0.000000000000       4.539617346036       0.006629720309      -0.000007055239      -0.020041622442
4 2       4.824675138954       1.542860000000       1.173038765157      -0.006661956743       0.000007055208       0.019818709669
5 2       7.767781843852       0.000000000000       1.794440153621      -0.003470789318      -0.000004284469       0.068053055325
6 2       9.532629291003       1.542860000000       3.918202266591       0.003484446418       0.000004284503      -0.068027905452
7 2       6.245507014196       1.542860000000       4.539609318226       0.006670240866       0.000007055118      -0.019855638876
8 2      11.054904120658       0.000000000000       1.173033101986      -0.006736149347      -0.000007055205       0.019946695685
9 1       5.823479835506       0.000000000000       1.466111525654       0.012723683701      -0.000008609638      -0.006641798011
10 1      -0.983514583018       1.542860000000       4.246534869136      -0.012767930617       0.000008609405       0.006666141281
11 1       1.378957039112       0.000000000000       3.222647031368      -0.040033994970      -0.000002473344       0.009665796581
12 1       3.460998496973       1.542860000000       2.489996998783       0.040036719826       0.000002473229      -0.009659504577
13 1       2.951584735576       1.542860000000       5.089788408531       0.004604247406       0.000004297241       0.034217178319
14 1       1.888370800509       0.000000000000       0.622855621620      -0.004558841068      -0.000004296997      -0.034063883537
15 1      12.053696736168       1.542860000000       1.466113214247       0.012858423852       0.000008609524      -0.006655290998
16 1       5.246702317644       0.000000000000       4.246536557729      -0.012717930282      -0.000008609634       0.006648028637
17 1       7.609183656177       1.542860000000       3.222651084600      -0.040011526294       0.000002473396       0.009636893267
18 1       9.691227478678       0.000000000000       2.489991335613       0.039976423442      -0.000002473742      -0.009556667981
19 1       9.181811352641       0.000000000000       5.089792461763       0.004592160039      -0.000004296992       0.034078746755
20 1       8.118597417574       1.542860000000       0.622859674852      -0.004601700145       0.000004297345      -0.034274199464
