20
Config_type=bulk_beta_phase Weight=1.0 Lattice="12.107072135 0.000000000 -2.946446429 0.000000000 3.085720933 0.000000000 0.000000000 0.000000000 5.879384649" Energy=-170.66766840 Virial="0.04264 0.00000 -0.00726 0.00000 0.00615 0.00000 -0.00726 0.00000 0.02151" pbc="T T T" Properties=species:S:1:pos:R:3:forces:R:3
Ga	      1.91827      1.54286      1.37998         0.012161      0.000004     -0.009502
Ga	      4.13526      0.00000      3.02618        -0.012169     -0.000004      0.009576
Ga	      1.08831      0.00000      4.40726         0.013058     -0.000009      0.014117
Ga	      4.96523      1.54286     -0.00109        -0.013167      0.000010     -0.014366
Ga	      7.97181      0.00000     -0.09325         0.012217     -0.000004     -0.009436
Ga	     10.18880      1.54286      1.55296        -0.012176      0.000004      0.009476
Ga	      7.14184      1.54286      2.93403         0.013209      0.000006      0.014300
Ga	     11.01877      0.00000     -1.47432        -0.013251     -0.000006     -0.014191
O	      6.00501      0.00000      0.04749         0.001327     -0.000011     -0.002161
O	      0.04853      1.54286      4.35867        -0.001382      0.000010      0.002193
O	      2.10189      0.00000      2.80518         0.001981     -0.000003     -0.000837
O	      3.95164      1.54286      1.60098        -0.001952      0.000002      0.000825
O	      4.07143      1.54286      4.24750         0.007991      0.000005      0.005234
O	      1.98210      0.00000      0.15866        -0.007910     -0.000005     -0.005071
O	     12.05854      1.54286     -1.42573         0.001500      0.000009     -0.002206
O	      6.10206      0.00000      2.88545        -0.001285     -0.000007      0.002163
O	      8.15543      1.54286      1.33196         0.001921      0.000003     -0.000794
O	     10.00518      0.00000      0.12775        -0.001983     -0.000003      0.000918
O	     10.12497      0.00000      2.77428         0.007953     -0.000005      0.005104
O	      8.03564      1.54286     -1.31456        -0.008041      0.000004     -0.005342
