ITEM: TIMESTEP
0
ITEM: NUMBER OF ATOMS
40
ITEM: BOX BOUNDS pp pp pp
0.0000000000000000e+00 8.6612970950000001e+00
0.0000000000000000e+00 5.0437451920000003e+00
0.0000000000000000e+00 9.2678423920000004e+00
ITEM: ATOMS id type c_pe_atom
1 2      -5.222130596698
2 2      -5.222222722650
3 2      -6.717691385052
4 2      -6.717700138119
5 2      -4.552104077474
6 2      -2.401608381615
7 2      -2.401536554412
8 2      -4.552151287145
9 2      -6.716989231997
10 2      -6.716972284950
11 2      -5.223734581141
12 2      -5.223833669807
13 2      -4.550102747257
14 2      -2.402698026602
15 2      -2.402732396720
16 2      -4.550176516794
17 1      -4.538994841436
18 1      -3.388363443023
19 1      -4.182808731525
20 1     -12.162418160186
21 1      -4.538908812480
22 1      -8.393239587513
23 1      -4.182754434407
24 1     -12.162533526295
25 1      -8.396494023337
26 1      -4.538898007999
27 1     -12.161534867314
28 1      -4.182173113168
29 1      -3.389266855643
30 1      -4.538854561871
31 1      -7.738962629574
32 1      -7.737357327043
33 1      -3.389276507631
34 1      -8.393305139656
35 1      -7.739089666226
36 1      -7.737352946803
37 1      -8.396503253880
38 1      -3.388339492208
39 1     -12.161596179939
40 1      -4.182140233299
