ITEM: TIMESTEP
0
ITEM: NUMBER OF ATOMS
30
ITEM: BOX BOUNDS xy xz yz pp pp pp
-2.5824949469999998e+00 5.1649899140000004e+00 -2.5824949469999998e+00
0.0000000000000000e+00 4.4730129019999998e+00 0.0000000000000000e+00
0.0000000000000000e+00 1.3904522606000000e+01 0.0000000000000000e+00
ITEM: ATOMS id type c_pe_atom
1 2      -4.973009638061
2 2      -4.973008838140
3 2      -4.973013728533
4 2      -4.973008563911
5 2      -4.973001330644
6 2      -4.973016602963
7 2      -4.973008801402
8 2      -4.973004402740
9 2      -4.973013102339
10 2      -4.973016740543
11 2      -4.973017576661
12 2      -4.973008796338
13 1     -10.819849372751
14 1     -10.819862633643
15 1     -10.819853620311
16 1     -10.819856713344
17 1     -10.819847158545
18 1     -10.819858350718
19 1     -10.819846929264
20 1     -10.819840530028
21 1     -10.819857029520
22 1     -10.819853630168
23 1     -10.819854624046
24 1     -10.819846563502
25 1     -10.819848242758
26 1     -10.819839209022
27 1     -10.819832519877
28 1     -10.819848793138
29 1     -10.819856563672
30 1     -10.819853850541
