30
Config_type=bulk_alpha_phase Weight=1.0 Lattice="5.164989914 0.000000000 0.000000000 -2.582494957 4.473012902 0.000000000 0.000000000 0.000000000 13.904522606" Energy=-254.56644660 Virial="-21.64707 -0.00002 -0.00001 -0.00002 -21.64711 -0.00000 -0.00001 -0.00000 -18.86034" pbc="T T T" Properties=species:S:1:pos:R:3:forces:R:3
Ga	      0.00000      0.00000      2.00419        -0.000012     -0.000045     -0.013823
Ga	      0.00000      2.98201      0.31324        -0.000007     -0.000053      0.013660
Ga	      2.58249      1.49100      2.63065         0.000078      0.000051      0.013751
Ga	      0.00000      2.98201      4.32161        -0.000030     -0.000035     -0.013682
Ga	      2.58249      1.49100      6.63902         0.000064      0.000073     -0.013632
Ga	      0.00000      0.00000      4.94807        -0.000029      0.000012      0.013831
Ga	      0.00000      2.98201      7.26550        -0.000025     -0.000082      0.013722
Ga	      0.00000      0.00000      8.95645        -0.000013     -0.000037     -0.013838
Ga	      0.00000      2.98201     11.27387         0.000011     -0.000029     -0.013693
Ga	      2.58249      1.49100      9.58291         0.000088      0.000052      0.013734
Ga	      0.00000      0.00000     11.90033        -0.000015      0.000002      0.013864
Ga	      2.58249      1.49100     13.59129         0.000084      0.000078     -0.013771
O	     -0.78251      1.35535      3.47613        -0.000489      0.000884      0.000106
O	      1.56502      0.00000      3.47613         0.001019     -0.000088      0.000119
O	      1.79998      3.11766      3.47613        -0.000533     -0.000815      0.000098
O	      3.36501      0.13565      1.15871         0.000460     -0.000841      0.000052
O	      3.36501      2.84635      1.15871         0.000435      0.000901      0.000059
O	      1.01747      1.49100      1.15871        -0.000964      0.000013      0.000026
O	      1.79998      2.84635      8.11097        -0.000404      0.000858      0.000101
O	      4.14752      1.49100      8.11097         0.000937      0.000020      0.000060
O	      1.79999      0.13565      8.11097        -0.000596     -0.000776      0.000108
O	      0.78251      1.62666      5.79356         0.000426     -0.000945     -0.000192
O	      0.78251      4.33736      5.79356         0.000581      0.000815     -0.000215
O	     -1.56503      2.98201      5.79356        -0.000968      0.000064     -0.000184
O	     -0.78251      4.33736     12.74582        -0.000622      0.000809     -0.000176
O	      1.56502      2.98201     12.74582         0.001041      0.000070     -0.000158
O	     -0.78251      1.62666     12.74582        -0.000460     -0.000935     -0.000151
O	     -1.79998      3.11766     10.42839         0.000487     -0.000896      0.000066
O	      0.78251      1.35535     10.42839         0.000551      0.000904      0.000074
O	      3.59997      0.00000     10.42839        -0.001096     -0.000030      0.000083
