ITEM: TIMESTEP
0
ITEM: NUMBER OF ATOMS
160
ITEM: BOX BOUNDS pp pp pp
0.0000000000000000e+00 8.3792421939999997e+00
0.0000000000000000e+00 8.3792421939999997e+00
0.0000000000000000e+00 2.5137726581999999e+01
ITEM: ATOMS id type x y z fx fy fz
1 2       1.215600000000       5.202000000000      22.105810000000      -0.368498663232       0.103277032619      -0.051030270477
2 2       5.204400000000       0.846300000000      13.683440000000       0.011915637305       0.050289832376      -0.212349634326
3 2       7.161240000000       7.408280000000       7.395250000000      -0.032609636089      -0.197032377511      -0.201000032737
4 2       7.292520000000       7.138630000000      15.780870000000      -0.031645385200       0.496580715327       0.111305744899
5 2       5.224640000000       5.254490000000       0.983410000000       0.313372533044      -0.002066965801      -0.104681142415
6 2       3.031750000000       3.204440000000       7.214910000000       0.202496929947      -0.100705522945       0.127725003433
7 2       0.953030000000       1.049140000000       1.090110000000       0.045498514495       0.077843206724      -0.086760118397
8 2       5.173400000000       1.033090000000       5.247300000000      -0.004851184164       0.080477197103      -0.154339887357
9 2       3.183420000000       2.967480000000      15.662410000000      -0.070625793839       0.094108717814      -0.010919701608
10 2       5.387880000000       1.117570000000      21.927870000000       0.035038191878      -0.011822841566       0.228507022881
11 2       3.139300000000       7.255790000000      11.524200000000      -0.073888029231       0.103595681925      -0.110915931632
12 2       7.427030000000       3.196820000000      19.826020000000      -0.122913169498      -0.415625371055       0.055510472884
13 2       1.019070000000       5.101660000000      13.495830000000      -0.035817016336       0.260160152006       0.110022332110
14 2       7.331340000000       3.223060000000       3.206070000000      -0.321408819164      -0.010363592822       0.104681556692
15 2       5.102180000000       5.338570000000       9.377850000000       0.205969880410      -0.047424181442       0.178219998516
16 2       7.363410000000       7.443850000000      24.119450000000       0.037427761710      -0.136541236211      -0.013473943757
17 2       3.197030000000       7.455920000000      19.943430000000       0.053499965603      -0.150358138560      -0.058501229184
18 2       0.914880000000       1.078620000000       9.527650000000       0.091125974332      -0.243163419563      -0.156188290998
19 2       3.229640000000       7.426680000000       3.096760000000      -0.076288899347      -0.050888486517       0.031354987374
20 2       1.176800000000       1.035120000000      17.834080000000      -0.182378658045      -0.090566561468      -0.099627178290
21 2       3.932250000000       0.188470000000       8.391860000000       0.086443813835      -0.016278210889       0.032096380193
22 2       6.143110000000       6.118820000000      12.545980000000       0.330389249554       0.018313556038      -0.186951923830
23 2       2.164110000000       2.134850000000      20.963530000000      -0.008354034067      -0.141295247492       0.046021168647
24 2       6.410670000000       6.297590000000      20.917020000000       0.010557332568       0.057526806871       0.343035126803
25 2       1.965250000000       6.402640000000       8.291140000000      -0.122880717821      -0.177566829238      -0.043524933635
26 2       8.329690000000       2.062930000000       6.246590000000      -0.244738007666      -0.145005330095       0.102294601060
27 2       1.992630000000       2.095220000000       4.223530000000       0.145782351444      -0.071586400182      -0.206670523092
28 2       0.050970000000       2.015590000000      14.626090000000      -0.069837816253      -0.045635176177       0.396884768105
29 2       0.164490000000       6.209090000000      18.809140000000       0.020394721126       0.341627304583       0.278642319162
30 2       6.275610000000       0.054880000000       2.104520000000       0.017241873913      -0.021376001475      -0.046426813168
31 2       6.102170000000       0.076600000000      10.537310000000       0.429594876009      -0.170943520994       0.198671322537
32 2       4.177950000000       2.199110000000      18.805800000000       0.319967003992       0.022449852721      -0.230612785510
33 2       6.415100000000       8.341220000000      18.861250000000      -0.257265999298       0.442044943842      -0.240382480553
34 2       6.359300000000       2.051790000000      16.740310000000      -0.073563523656      -0.508080727232       0.279184956660
35 2       0.159830000000       2.069660000000      23.095870000000      -0.071884162035       0.248903604753       0.120369961785
36 2       2.036650000000       8.165580000000      14.757540000000      -0.133384581930       0.110080189063       0.074113223583
37 2       4.015700000000       6.030050000000      14.670530000000       0.150664083430       0.081175425216       0.114663397925
38 2       6.252500000000       4.208920000000       6.310010000000      -0.308067529589       0.180610363239      -0.297430661916
39 2       4.213420000000       6.391630000000      23.080540000000       0.331194862748       0.390484033627      -0.125468304306
40 2       0.094890000000       4.190490000000      16.756190000000       0.163447963210      -0.307882355198      -0.113276408170
41 2       2.088970000000       4.241640000000       2.092390000000      -0.004472696571       0.001396307241       0.007802557612
42 2       4.138640000000       4.308270000000      20.894540000000       0.267614632757      -0.020689181695      -0.280748333059
43 2       4.145880000000       8.186790000000      16.819430000000       0.442154320499       0.143573569235       0.180587933374
44 2       6.308940000000       4.245080000000      22.996890000000       0.399509916916      -0.111400210332       0.311133187253
45 2       8.315000000000       6.213370000000      10.452110000000      -0.148664851505       0.283840238414       0.252588318159
46 2       8.364490000000       8.309850000000      12.592070000000      -0.167573773284      -0.186877585498      -0.197346507471
47 2       0.029370000000       4.279410000000       0.041150000000      -0.384188630218      -0.066141728890      -0.316503229547
48 2       6.222330000000       4.066640000000      14.636050000000       0.127366166647       0.023732984307      -0.326576363265
49 2       4.140740000000       4.194640000000       4.155910000000       0.377432189171       0.124970976030       0.242249642587
50 2       2.128010000000       2.038240000000      12.496440000000       0.246616362805      -0.191861242433       0.229441860836
51 2       2.096450000000       4.115880000000      10.487710000000       0.110359036840       0.273499378337      -0.177104884921
52 2       0.041650000000       6.437490000000       2.197350000000       0.056154697303      -0.202386450481      -0.012617143340
53 2       0.203500000000       8.336790000000      21.050960000000      -0.222390541638      -0.068533773201       0.019161095646
54 2       4.127400000000       2.040930000000       1.987040000000      -0.057770742873       0.205554286313       0.012691773672
55 2       6.209260000000       2.054910000000      25.091730000000      -0.018494548616       0.287686878156      -0.177421481784
56 2       8.356800000000       4.142650000000       8.375740000000      -0.055745943047       0.068430318572      -0.024868525632
57 2       6.087760000000       2.166990000000       8.481050000000       0.165935668473       0.119239088513      -0.022454608430
58 2       4.021980000000       6.427840000000       6.225840000000       0.082233367125      -0.406928656316      -0.225667539142
59 2       6.341680000000       6.425680000000       4.243010000000       0.044250526172      -0.359249208732       0.142420666844
60 2       2.181910000000       6.387160000000      25.103750000000      -0.229075253624       0.099059108505       0.187840500559
61 2       5.168440000000       3.123530000000      11.565620000000      -0.215528337525      -0.015600736768       0.056323287991
62 2       3.178310000000       1.077390000000      24.068410000000       0.109266583452      -0.361181304348       0.051321742069
63 2       3.169790000000       5.173090000000      17.798770000000      -0.066170275806      -0.026898679923      -0.026058805764
64 2       0.988270000000       7.400190000000       5.231440000000      -0.031313354867       0.200516689837      -0.044515976980
65 1       2.121270000000       2.145620000000       2.120350000000       0.221243106279       0.156995089838       0.210481025584
66 1       6.151600000000       6.235470000000       6.248520000000       0.078546589476      -0.053957409127      -0.144731153407
67 1       4.251990000000       8.315920000000       6.429260000000       0.048875090737       0.121346585209      -0.098743738405
68 1       4.309050000000       0.128700000000       2.086150000000      -0.027604648808      -0.018738543392       0.040094873600
69 1       8.260360000000       6.363440000000       4.122540000000       0.296208458261      -0.067230893803       0.251444332692
70 1       0.028400000000       2.179150000000       4.273190000000       0.171064338555      -0.006800193481       0.212409962792
71 1       6.199990000000       4.169060000000       8.350160000000       0.270063246810      -0.222390021052      -0.132161962567
72 1       1.913900000000       4.439610000000       0.226250000000      -0.011443492150      -0.042649710767       0.085169937011
73 1       8.369690000000       4.354180000000       2.077370000000       0.281275500894       0.089092944889      -0.137860203337
74 1       8.127790000000       4.019000000000       6.511720000000      -0.018142154685      -0.018118593180       0.114193800659
75 1       4.288400000000       2.112760000000       0.055750000000      -0.318615044966       0.098406578331      -0.183211285549
76 1       4.017810000000       6.385760000000       8.248060000000      -0.119238817980       0.079417972444      -0.095168993616
77 1       2.112800000000       0.080470000000       4.171940000000       0.076729288524       0.154666805369      -0.007085916411
78 1       6.150040000000       8.325970000000       4.091940000000      -0.050674202855       0.166142010256       0.033411086744
79 1       2.100250000000       6.393010000000       6.356760000000      -0.235824728303      -0.022183897126      -0.267023989088
80 1       6.225190000000       2.123890000000       2.031410000000      -0.079506712933      -0.140913936434      -0.098921080351
81 1       4.184150000000       4.125210000000       2.110800000000      -0.277146550857      -0.083724870755       0.152435115665
82 1       4.223020000000       4.331020000000       6.175590000000      -0.166355087354      -0.122335477631       0.011366847906
83 1       8.179390000000       2.102950000000       8.364270000000      -0.030117764268       0.265621471468      -0.269054850384
84 1       0.044650000000       6.306910000000       0.089250000000       0.293544075010      -0.111381106042      -0.097481787998
85 1       8.238330000000       0.066330000000       6.304660000000       0.087886097521       0.157600490275      -0.053140911570
86 1       8.244190000000       8.352920000000       2.101060000000       0.036506017946      -0.004965237596      -0.041224592309
87 1       4.240050000000       6.234650000000       4.234060000000      -0.134890491696       0.043967566838       0.095814016336
88 1       4.125360000000       2.169610000000       4.110130000000      -0.262244283241       0.049360196901       0.061529722216
89 1       6.255460000000       2.165380000000       6.355300000000       0.247504622359       0.041781287057      -0.004800014716
90 1       2.054240000000       6.335760000000       2.064660000000      -0.208984007088      -0.151088230422      -0.164611083621
91 1       2.258640000000       4.043690000000       3.957690000000       0.032662935866       0.064191325616      -0.052501500956
92 1       6.161590000000       4.322760000000       4.273820000000       0.088840311057       0.030621309234       0.033573024043
93 1       6.385370000000       0.152290000000       0.112940000000       0.045875337756      -0.096175245843      -0.001620820665
94 1       2.035270000000       8.330180000000       8.530210000000       0.131780198060       0.273121111008       0.099365718405
95 1       6.324600000000       6.358740000000       2.158590000000       0.071874097260       0.116769553937       0.131302783019
96 1       1.916250000000       2.163840000000       6.168830000000      -0.026762618431      -0.088571234257       0.086883493402
97 1       2.019610000000       2.153710000000      10.547160000000       0.148457683808       0.054074413183       0.057591416337
98 1       6.204940000000       6.123750000000      14.591840000000      -0.156307336177      -0.208941321539      -0.179754291104
99 1       4.110400000000       8.190800000000      14.803930000000      -0.020218628849      -0.185407397673       0.114582637335
100 1       4.213060000000       8.212620000000      10.345590000000      -0.167794928942       0.009620317418       0.091008429719
101 1       8.234170000000       6.289880000000      12.475190000000       0.040756929276      -0.125126064911      -0.041411697521
102 1       0.170610000000       1.802500000000      12.759870000000      -0.015272126754      -0.008436492679      -0.093301177409
103 1       6.544260000000       3.914170000000      16.520950000000      -0.033522929553       0.059541625752       0.022896088292
104 1       2.026580000000       4.315420000000       8.389800000000      -0.247977380900       0.004226357661       0.233090944223
105 1       0.129510000000       4.342000000000      10.240660000000      -0.013254466375      -0.017500810865      -0.057938024061
106 1       0.001330000000       4.021080000000      14.677770000000      -0.183572023250      -0.060645342956       0.187789555542
107 1       4.155700000000       2.091350000000       8.228640000000      -0.271973563470      -0.133359382240      -0.135352261537
108 1       4.131400000000       6.283850000000      16.637320000000      -0.026586312466      -0.060154134137       0.309325204090
109 1       2.026570000000       8.336520000000      12.630380000000      -0.037895449311       0.224676288271      -0.100488569494
110 1       6.333260000000       8.216220000000      12.525000000000       0.024446735665       0.121366317173      -0.092504631297
111 1       2.101950000000       6.251640000000      14.509810000000       0.097572255202      -0.304104505198      -0.153309515668
112 1       6.129930000000       2.002230000000      10.407130000000       0.065723752944       0.245364011086       0.231197699101
113 1       4.105760000000       4.240810000000      10.482470000000      -0.183071848546      -0.115079985760       0.126599254300
114 1       4.278510000000       4.130610000000      14.742260000000      -0.040392356509       0.160320136066       0.043740425496
115 1       0.027150000000       2.033620000000      16.656090000000      -0.038999641419       0.238139952272       0.099304139378
116 1       8.334700000000       6.293820000000       8.408840000000       0.206549201891      -0.260749334048       0.149006864046
117 1       0.037790000000       8.265240000000      14.665130000000       0.202835579334       0.130320887389      -0.133705988911
118 1       8.193310000000       8.248460000000      10.571610000000       0.159192324037       0.144259494407       0.016232236174
119 1       4.254840000000       6.349430000000      12.715640000000      -0.099705776047       0.020832958780      -0.006471300681
120 1       4.150170000000       1.946680000000      12.618420000000      -0.171447863514      -0.010532252182      -0.037873233878
121 1       6.375460000000       1.965850000000      14.694900000000       0.165897178229       0.305749050581       0.062124264689
122 1       1.988610000000       6.204970000000      10.405610000000      -0.049367344667      -0.192588656498       0.029965567311
123 1       2.052000000000       4.006010000000      12.437730000000       0.064458425964      -0.009239715639      -0.014502426791
124 1       6.218210000000       4.199520000000      12.687460000000      -0.063380480063      -0.225562284424      -0.254633055290
125 1       6.109580000000       0.108810000000       8.516490000000      -0.090737792141       0.131269638249       0.098391342707
126 1       2.228400000000       0.045620000000      16.671780000000      -0.156408495191       0.003776970350       0.087583281669
127 1       6.292420000000       6.322910000000      10.523540000000       0.062722381806      -0.115075924158       0.173538489598
128 1       2.090510000000       1.876980000000      14.582440000000      -0.272507234780       0.064130983247      -0.257225402462
129 1       2.272280000000       2.007800000000      18.971140000000      -0.055222961953      -0.095800132633       0.041661614892
130 1       6.337680000000       6.310100000000      22.950210000000      -0.216493515890      -0.046971681114       0.055187249082
131 1       4.326890000000       0.033720000000      23.000230000000       0.026583433433      -0.196486620452       0.059607974242
132 1       4.374190000000       0.071500000000      18.793490000000      -0.044254467503      -0.240196432738       0.009956236901
133 1       0.108520000000       6.341850000000      20.973210000000      -0.062801075794       0.122212591384      -0.255907739133
134 1       0.109770000000       2.074980000000      21.010440000000       0.203071432354       0.064596411650       0.116990616400
135 1       6.395260000000       4.160700000000      25.047350000000      -0.112426817646      -0.052746513010      -0.023501543447
136 1       2.102660000000       4.040670000000      16.737420000000      -0.097322995329       0.020366133631       0.051027607621
137 1       0.067600000000       4.247400000000      18.721200000000       0.031145871180       0.181779497565      -0.160831490624
138 1       8.338930000000       4.148430000000      23.143590000000       0.112108800879       0.082509317078       0.002583694075
139 1       4.340610000000       1.940520000000      16.826690000000       0.004958356317       0.222098752841      -0.027290281012
140 1       4.153890000000       6.296620000000      25.042890000000      -0.190350266810      -0.016414244264      -0.165282941307
141 1       2.100330000000       0.144020000000      20.953170000000       0.051778306904      -0.004746950633      -0.016955983105
142 1       6.486120000000       0.009990000000      20.876770000000      -0.000975546872      -0.305403264995      -0.151645765650
143 1       2.252280000000       6.316550000000      23.159450000000      -0.038667849228       0.063455395590      -0.040860192481
144 1       6.300470000000       1.996230000000      18.774360000000      -0.081402820167       0.086837462621      -0.041571648855
145 1       4.220750000000       4.121920000000      18.956850000000      -0.003273623679       0.218588752325      -0.347564658434
146 1       4.453290000000       4.460570000000      22.785420000000      -0.076605516616      -0.057731060851       0.028048178302
147 1       8.312490000000       2.242900000000      25.094430000000       0.146932150394      -0.025119081136      -0.088727299486
148 1       0.032000000000       6.140620000000      16.844700000000       0.190785879577      -0.066347300239       0.085851523055
149 1       8.306040000000       0.157800000000      22.954070000000      -0.037716849173      -0.115657432514       0.082276137931
150 1       0.059370000000       8.341670000000      18.939450000000      -0.005991699108      -0.285222126514      -0.104808444541
151 1       4.358270000000       6.353460000000      20.968320000000       0.097068882097      -0.257642389809       0.141122588030
152 1       4.250380000000       2.200850000000      20.849400000000      -0.207772281103       0.225038202062      -0.078852565422
153 1       6.415470000000       2.241950000000      23.091190000000      -0.049861154351       0.021533940270       0.092692792670
154 1       2.151990000000       6.318880000000      18.888300000000      -0.039125769511       0.101937168310       0.045589224950
155 1       2.220460000000       4.096610000000      21.020440000000       0.038167681325      -0.030383024067       0.023672643935
156 1       6.369820000000       4.291700000000      20.965850000000      -0.285846870681       0.088306863234       0.124713084564
157 1       6.248140000000       0.007440000000      16.831590000000       0.076129927576       0.001871151718       0.068511815582
158 1       2.072150000000       0.015690000000       0.016070000000      -0.071495160104      -0.098419171080      -0.000005532547
159 1       6.606900000000       6.463780000000      19.050110000000      -0.082506878938      -0.045346192890      -0.072317402226
160 1       2.061600000000       2.078480000000      22.951750000000       0.151609809755      -0.014632702337       0.156551069848
