ITEM: TIMESTEP
0
ITEM: NUMBER OF ATOMS
160
ITEM: BOX BOUNDS pp pp pp
0.0000000000000000e+00 8.3792421939999997e+00
0.0000000000000000e+00 8.3792421939999997e+00
0.0000000000000000e+00 2.5137726581999999e+01
ITEM: ATOMS id type c_pe_atom
1 2     -10.173740198937
2 2      -9.178984518974
3 2      -9.271481703869
4 2     -10.161601227557
5 2     -10.231262272386
6 2     -10.213521981528
7 2      -9.310517463661
8 2      -9.464490389857
9 2      -9.247900166774
10 2      -9.229442840598
11 2      -9.327442522753
12 2     -10.282338291573
13 2     -10.198894098010
14 2     -10.196013351298
15 2      -9.248289710280
16 2      -9.618258775980
17 2      -9.301976687904
18 2     -10.139292547809
19 2      -9.308121672023
20 2      -9.564390984887
21 2      -5.676752372347
22 2      -4.975796059134
23 2      -5.602585485800
24 2      -4.253226609209
25 2      -4.939190771680
26 2      -6.250838433352
27 2      -6.301183296046
28 2      -4.148005913949
29 2      -6.478864549628
30 2      -5.291829452300
31 2      -4.998059562778
32 2      -5.147624495870
33 2      -4.579533685557
34 2      -4.566967419533
35 2      -4.961568569078
36 2      -4.427912357603
37 2      -5.810466007444
38 2      -4.608964737182
39 2      -6.285167000397
40 2      -6.303304835106
41 2      -5.516523668240
42 2      -5.850410163106
43 2      -5.101510553061
44 2      -4.786028261731
45 2      -4.553645471045
46 2      -4.510596119146
47 2      -4.704505829826
48 2      -5.772072367853
49 2      -4.740668423944
50 2      -6.076342869838
51 2      -6.206369170870
52 2      -4.791781043981
53 2      -4.388518853622
54 2      -4.855307732682
55 2      -4.893147781260
56 2      -5.448204977395
57 2      -4.990763383908
58 2      -5.044275838905
59 2      -4.926074368066
60 2      -6.310995334690
61 2     -10.058090344235
62 2      -9.908163519947
63 2      -9.789096206754
64 2      -9.958483408204
65 1      -6.950048297888
66 1      -7.190415956484
67 1      -3.592360309151
68 1      -3.184372883800
69 1      -2.866862479469
70 1      -3.207734232775
71 1      -6.978248307712
72 1      -3.124191830399
73 1      -7.021541290249
74 1      -3.052432373732
75 1      -2.921614266578
76 1      -7.635487671908
77 1      -3.950409353924
78 1      -3.713220881168
79 1      -2.954297756461
80 1      -8.086141143635
81 1      -6.987754048183
82 1      -6.922498461827
83 1      -7.217169400973
84 1      -7.408651556451
85 1      -3.551998062039
86 1      -3.284719505967
87 1      -6.891414421713
88 1      -7.405356405162
89 1      -7.453184405797
90 1      -7.025644849603
91 1      -3.117064582154
92 1      -6.635820740186
93 1      -3.707209651051
94 1      -3.034229949227
95 1      -8.209276133999
96 1      -3.104517173897
97 1      -3.146343991241
98 1      -7.692196833224
99 1      -7.600603479975
100 1      -3.555695982991
101 1      -6.694291669085
102 1      -3.364891131736
103 1      -3.782404638244
104 1      -7.116306420126
105 1      -3.153115389615
106 1      -6.960134325924
107 1      -3.135250432497
108 1      -3.332212470291
109 1      -7.399346289120
110 1      -6.881155971129
111 1      -3.165056982282
112 1      -2.928610606136
113 1      -3.741781028376
114 1      -2.990187488121
115 1      -7.064124142317
116 1      -7.029249997000
117 1      -7.327530328014
118 1      -6.973454130326
119 1      -3.675795264683
120 1      -4.004262992301
121 1      -7.237419345087
122 1      -7.556973844061
123 1      -3.345973739466
124 1      -2.787803218736
125 1      -7.521051020672
126 1      -3.310016984970
127 1      -7.301214305381
128 1      -7.359955292167
129 1      -3.813868630640
130 1      -7.009913261170
131 1      -3.795125592007
132 1      -7.036798897496
133 1      -7.271575258343
134 1      -8.183790215913
135 1      -6.693976070673
136 1      -3.999569244121
137 1      -3.124214035255
138 1      -6.694180284319
139 1      -7.132694130200
140 1      -3.108276620786
141 1      -3.319942473958
142 1      -7.168951470515
143 1      -3.152057533424
144 1      -6.945149441486
145 1      -2.679307118129
146 1      -3.805059457406
147 1      -7.020108577910
148 1      -3.144590327745
149 1      -3.225433739585
150 1      -7.338045930303
151 1      -7.009805187002
152 1      -7.644075823440
153 1      -6.867613690385
154 1      -3.718195745366
155 1      -2.883824419581
156 1      -6.777497929673
157 1      -6.861733970606
158 1      -3.886313465919
159 1      -3.295943938335
160 1      -3.344927392448
