ITEM: TIMESTEP
0
ITEM: NUMBER OF ATOMS
30
ITEM: BOX BOUNDS xy xz yz pp pp pp
-2.5014755069999999e+00 5.0029510149999998e+00 -2.5014755069999999e+00
0.0000000000000000e+00 4.3326830860000003e+00 0.0000000000000000e+00
0.0000000000000000e+00 1.3468302289000000e+01 0.0000000000000000e+00
ITEM: ATOMS id type x y z fx fy fz
1 2       0.000000000000       0.000000000000       1.941310000000       0.000037030619       0.000041694225      -0.062855205068
2 2      -0.000000000000       2.888460000000       0.303410000000       0.000031701789      -0.000046732574       0.062697790023
3 2       2.501480000000       1.444230000000       2.548120000000      -0.000057065413      -0.000031288615       0.062747370241
4 2      -0.000000000000       2.888460000000       4.186030000000       0.000003343454      -0.000081202789      -0.062721683046
5 2       2.501480000000       1.444230000000       6.430740000000      -0.000116692374       0.000025990320      -0.062719482899
6 2       0.000000000000       0.000000000000       4.792840000000      -0.000021845463       0.000077604655       0.062863953549
7 2      -0.000000000000       2.888460000000       7.037560000000       0.000011157170      -0.000060130085       0.062793120578
8 2       0.000000000000       0.000000000000       8.675460000000       0.000055194848       0.000035990890      -0.062785940821
9 2      -0.000000000000       2.888460000000      10.920180000000       0.000028854185      -0.000061976298      -0.062718389375
10 2       2.501480000000       1.444230000000       9.282270000000      -0.000087445835      -0.000051557440       0.062850925323
11 2       0.000000000000       0.000000000000      11.526990000000      -0.000002378288       0.000080662721       0.062885242208
12 2       2.501480000000       1.444230000000      13.164890000000      -0.000133594023       0.000040981231      -0.062773519781
13 1      -0.757960000000       1.312830000000       3.367080000000      -0.048448683339       0.083861782103      -0.000038906174
14 1       1.515930000000       0.000000000000       3.367080000000       0.096783064354       0.000059717689      -0.000075496472
15 1       1.743510000000       3.019850000000       3.367080000000      -0.048324968253      -0.083825130275      -0.000064255260
16 1       3.259440000000       0.131400000000       1.122350000000       0.048471487608      -0.083810176154       0.000181521622
17 1       3.259440000000       2.757060000000       1.122350000000       0.048326077731       0.083896699509       0.000186475917
18 1       0.985550000000       1.444230000000       1.122350000000      -0.096815619745      -0.000080910140       0.000163996612
19 1       1.743510000000       2.757060000000       7.856510000000      -0.048345153534       0.083857857223       0.000044400843
20 1       4.017400000000       1.444230000000       7.856510000000       0.096867853344       0.000000783338       0.000013887513
21 1       1.743520000000       0.131400000000       7.856510000000      -0.048551435733      -0.083834692708       0.000079507892
22 1       0.757960000000       1.575630000000       5.611800000000       0.048399070471      -0.083908697232      -0.000071924042
23 1       0.757960000000       4.201290000000       5.611800000000       0.048507005829       0.083792949302      -0.000126627898
24 1      -1.515930000000       2.888460000000       5.611800000000      -0.096770639922       0.000034693101      -0.000081884418
25 1      -0.757960000000       4.201290000000      12.345950000000      -0.048538276372       0.083815688490      -0.000120294892
26 1       1.515920000000       2.888460000000      12.345950000000       0.096897331314       0.000004062205      -0.000071392418
27 1      -0.757970000000       1.575630000000      12.345950000000      -0.048224709657      -0.083925083196      -0.000148871698
28 1      -1.743510000000       3.019850000000      10.101230000000       0.048381379173      -0.083812916390      -0.000034195307
29 1       0.757960000000       1.312830000000      10.101230000000       0.048519320586       0.083867933288      -0.000051236057
30 1       3.487030000000       0.000000000000      10.101230000000      -0.096881364522       0.000035403604      -0.000048886696
