ITEM: TIMESTEP
0
ITEM: NUMBER OF ATOMS
40
ITEM: BOX BOUNDS pp pp pp
0.0000000000000000e+00 8.8725482440000008e+00
0.0000000000000000e+00 5.1667633669999997e+00
0.0000000000000000e+00 9.4938873289999997e+00
ITEM: ATOMS id type c_pe_atom
1 2      -4.900434120539
2 2      -4.900429455408
3 2      -4.548762316177
4 2      -4.548765830401
5 2      -5.008508647919
6 2      -4.864786783749
7 2      -4.864785401112
8 2      -5.008525933400
9 2      -4.548666088134
10 2      -4.548658464678
11 2      -4.899360430407
12 2      -4.899359397490
13 2      -5.009792631655
14 2      -4.864809517986
15 2      -4.864813938724
16 2      -5.009805296887
17 1     -11.102985871697
18 1     -11.108798398311
19 1     -11.040981276252
20 1     -10.512014636851
21 1     -11.103000707493
22 1     -11.018678657158
23 1     -11.040977195865
24 1     -10.512015003613
25 1     -11.018463398770
26 1     -11.102518480959
27 1     -10.510168072904
28 1     -11.040902906323
29 1     -11.109624480579
30 1     -11.102525585683
31 1     -10.986393518625
32 1     -10.986189148182
33 1     -11.109629508501
34 1     -11.018679050661
35 1     -10.986400229473
36 1     -10.986187168593
37 1     -11.018464394487
38 1     -11.108813687010
39 1     -10.510172828214
40 1     -11.040909013550
