80
Config_type=bulk_delta_phase Weight=1.0 Lattice="9.392122666 0.000000000 0.000000000 0.000000000 9.392122666 0.000000000 0.000000000 0.000000000 9.392122666" Energy=-680.17898060 Virial="5.27856 0.00000 -0.00000 0.00000 5.27862 0.00001 -0.00000 0.00001 5.27865" pbc="T T T" Properties=species:S:1:pos:R:3:forces:R:3
Ga	      7.04409      2.34803      2.34803         0.000019      0.000004      0.000012
Ga	      7.04409      4.36006      4.69606         0.000012      0.011715      0.000002
Ga	      0.00000      7.04409      0.33600        -0.000028      0.000011     -0.011737
Ga	      0.00000      2.34803      4.36006        -0.000034      0.000003      0.011719
Ga	      0.33600      0.00000      7.04409        -0.011742     -0.000023      0.000008
Ga	      0.33600      4.69606      2.34803        -0.011741     -0.000004     -0.000007
Ga	      2.34803      4.36006      0.00000         0.000006      0.011723     -0.000030
Ga	      2.34803      7.04409      2.34803         0.000005      0.000018      0.000003
Ga	      2.34803      2.34803      2.34803        -0.000002     -0.000008     -0.000002
Ga	      2.34803      2.34803      7.04409         0.000003      0.000006      0.000012
Ga	      2.34803      0.33600      4.69606        -0.000003     -0.011743     -0.000004
Ga	      4.36006      0.00000      2.34803         0.011716     -0.000025      0.000001
Ga	      4.36006      4.69606      7.04409         0.011714     -0.000003      0.000014
Ga	      4.69606      2.34803      0.33600        -0.000002     -0.000002     -0.011739
Ga	      4.69606      7.04409      4.36006         0.000006      0.000006      0.011712
Ga	      7.04409      0.33600      0.00000         0.000006     -0.011747     -0.000022
Ga	      2.34803      7.04409      7.04409        -0.000001      0.000011      0.000007
Ga	      2.34803      9.05612      0.00000        -0.000003      0.011733     -0.000023
Ga	      4.69606      2.34803      5.03206         0.000005      0.000001     -0.011710
Ga	      4.69606      7.04409      9.05612        -0.000002      0.000010      0.011727
Ga	      5.03206      4.69606      2.34803        -0.011711      0.000008     -0.000004
Ga	      5.03206      0.00000      7.04409        -0.011708     -0.000019      0.000019
Ga	      7.04409      9.05612      4.69606         0.000014      0.011727      0.000003
Ga	      7.04409      2.34803      7.04409         0.000017     -0.000002      0.000005
Ga	      7.04409      7.04409      7.04409         0.000012      0.000017      0.000007
Ga	      7.04409      7.04409      2.34803         0.000009      0.000005     -0.000003
Ga	      7.04409      5.03206      0.00000         0.000016     -0.011713     -0.000021
Ga	      9.05612      4.69606      7.04409         0.011731      0.000003      0.000009
Ga	      9.05612      0.00000      2.34803         0.011735     -0.000022     -0.000008
Ga	      0.00000      7.04409      5.03206        -0.000022      0.000014     -0.011712
Ga	      0.00000      2.34803      9.05612        -0.000020     -0.000001      0.011728
Ga	      2.34803      5.03206      4.69606         0.000000     -0.011707      0.000013
O	      8.31161      5.73709      1.48327         0.003568     -0.001262      0.002699
O	      8.31161      3.65503      3.21279         0.003551      0.001280     -0.002698
O	      8.35109      1.48327      1.08051         0.001291      0.002694     -0.003566
O	      8.35109      3.21279      5.77657         0.001288     -0.002687     -0.003542
O	      1.04103      3.21279      1.08051        -0.001296     -0.002701     -0.003550
O	      1.04103      1.48327      5.77657        -0.001260      0.002673     -0.003528
O	      1.08051      8.35109      1.48327        -0.003575      0.001288      0.002688
O	      1.08051      1.04103      3.21279        -0.003540     -0.001292     -0.002694
O	      1.48327      5.77657      1.04103         0.002670     -0.003537     -0.001274
O	      1.48327      3.61555      3.65503         0.002698      0.003554      0.001276
O	      1.48327      1.08051      8.35109         0.002684     -0.003556      0.001281
O	      1.48327      8.31161      5.73709         0.002699      0.003580     -0.001273
O	      3.21279      3.61555      5.73709        -0.002710      0.003550     -0.001281
O	      3.21279      1.08051      1.04103        -0.002701     -0.003549     -0.001289
O	      3.21279      8.31161      3.65503        -0.002698      0.003561      0.001288
O	      3.21279      5.77657      8.35109        -0.002702     -0.003549      0.001278
O	      3.61555      3.65503      1.48327         0.003539      0.001265      0.002697
O	      3.61555      5.73709      3.21279         0.003520     -0.001287     -0.002672
O	      3.65503      1.48327      3.61555         0.001252      0.002678      0.003535
O	      3.65503      3.21279      8.31161         0.001278     -0.002701      0.003552
O	      5.73709      1.48327      8.31161        -0.001284      0.002673      0.003563
O	      5.73709      3.21279      3.61555        -0.001269     -0.002682      0.003521
O	      5.77657      8.35109      3.21279        -0.003534      0.001276     -0.002710
O	      5.77657      1.04103      1.48327        -0.003530     -0.001269      0.002682
O	      3.61555      1.04103      6.17933         0.003514     -0.001288      0.002694
O	      3.61555      8.35109      7.90885         0.003537      0.001292     -0.002694
O	      3.65503      6.17933      5.77657         0.001257      0.002673     -0.003550
O	      3.65503      7.90885      1.08051         0.001275     -0.002681     -0.003557
O	      5.73709      7.90885      5.77657        -0.001272     -0.002683     -0.003514
O	      5.73709      6.17933      1.08051        -0.001276      0.002699     -0.003528
O	      5.77657      3.65503      6.17933        -0.003532      0.001283      0.002688
O	      5.77657      5.73709      7.90885        -0.003531     -0.001262     -0.002707
O	      6.17933      1.08051      5.73709         0.002685     -0.003562     -0.001265
O	      6.17933      8.31161      8.35109         0.002709      0.003571      0.001274
O	      6.17933      5.77657      3.65503         0.002686     -0.003531      0.001259
O	      6.17933      3.61555      1.04103         0.002686      0.003524     -0.001262
O	      7.90885      8.31161      1.04103        -0.002680      0.003548     -0.001275
O	      7.90885      5.77657      5.73709        -0.002691     -0.003540     -0.001259
O	      7.90885      3.61555      8.35109        -0.002667      0.003531      0.001281
O	      7.90885      1.08051      3.65503        -0.002685     -0.003554      0.001264
O	      8.31161      8.35109      6.17933         0.003557      0.001285      0.002724
O	      8.31161      1.04103      7.90885         0.003569     -0.001283     -0.002677
O	      8.35109      6.17933      8.31161         0.001292      0.002713      0.003548
O	      8.35109      7.90885      3.61555         0.001271     -0.002689      0.003510
O	      1.04103      6.17933      3.61555        -0.001258      0.002664      0.003534
O	      1.04103      7.90885      8.31161        -0.001294     -0.002678      0.003559
O	      1.08051      3.65503      7.90885        -0.003563      0.001264     -0.002690
O	      1.08051      5.73709      6.17933        -0.003533     -0.001293      0.002682
