ITEM: TIMESTEP
0
ITEM: NUMBER OF ATOMS
40
ITEM: BOX BOUNDS pp pp pp
0.0000000000000000e+00 8.9077567690000006e+00
0.0000000000000000e+00 5.1872663960000001e+00
0.0000000000000000e+00 9.5315614849999992e+00
ITEM: ATOMS id type c_pe_atom
1 2      -8.049364950249
2 2      -8.049446641382
3 2      -9.316615434397
4 2      -9.316620850930
5 2      -6.935013604960
6 2      -5.485771449930
7 2      -5.485735979764
8 2      -6.935109357776
9 2      -9.317062361985
10 2      -9.317018776557
11 2      -8.051435051956
12 2      -8.051436678219
13 2      -6.929710609861
14 2      -5.485839281972
15 2      -5.485799714694
16 2      -6.929712540999
17 1      -2.753573887111
18 1      -1.944228478599
19 1      -3.174354825042
20 1      -8.966639364315
21 1      -2.753667888007
22 1      -6.595190852289
23 1      -3.174292243180
24 1      -8.966636994582
25 1      -6.598298492225
26 1      -2.749786974864
27 1      -8.965082608716
28 1      -3.172969341685
29 1      -1.943112404033
30 1      -2.749804151204
31 1      -6.148551790309
32 1      -6.148209851212
33 1      -1.943202201831
34 1      -6.595160383012
35 1      -6.148525790803
36 1      -6.148223610106
37 1      -6.598301179292
38 1      -1.944131721887
39 1      -8.965093541646
40 1      -3.172886078862
