ITEM: TIMESTEP
0
ITEM: NUMBER OF ATOMS
160
ITEM: BOX BOUNDS pp pp pp
0.0000000000000000e+00 8.4295796900000006e+00
0.0000000000000000e+00 8.4295796900000006e+00
0.0000000000000000e+00 2.5288739070999998e+01
ITEM: ATOMS id type v_vir_xx v_vir_yy v_vir_zz v_vir_xy v_vir_xz v_vir_yz
1 2      -2.878909734496      -0.748551444563      -0.813820524419       0.032843538147      -0.220735674729      -0.140603817812
2 2      -2.990506916367      -2.144079844239      -2.707381015183      -0.295405315642       0.395570184300       0.171810984573
3 2      -1.986677078594      -2.874984494118      -2.470881580298       0.374849947229       0.497620312695       0.001323961903
4 2      -0.523311246880      -2.572089943595      -2.581779933696       0.234666266361      -0.255638927057       0.528891589930
5 2      -2.630682506359      -0.585595761725      -2.412707232123       0.070328900083      -0.104061928645       0.084514502294
6 2      -2.819613012574      -0.827187752093      -1.399648347905       0.263088339625      -0.062807147712      -0.271581780191
7 2      -2.140172733301      -3.140264001326      -0.859495281391      -0.645046645722       0.064218252275      -0.084392420783
8 2      -0.396220056456      -3.489999772651      -2.517019776744       0.096106579273      -0.246826899165      -0.347379858835
9 2      -3.465921583617      -2.280816827869      -0.792110585615      -0.568235516690       0.062246503212      -0.314138883130
10 2      -2.103926235440      -2.939849754700      -2.503820245944       0.365236802056       0.152372887883      -0.278262231631
11 2      -3.527395028599      -0.771796664199      -2.709539587697      -0.013435830484       0.265305246248      -0.092122083328
12 2      -0.434240031676      -2.581295475753      -2.521339892177       0.040829669884       0.466513572744       0.442505210808
13 2      -0.984541900351      -2.859221344607      -1.622810796948      -0.322618481381       0.531834709899      -0.185132674737
14 2      -2.554804118937      -0.573262554863      -2.471409251106       0.095340344706      -0.089456342192       0.050862159327
15 2      -2.964157621094      -2.021615674995      -2.459201714565       0.420117648480       0.157782662094       0.435412657763
16 2      -0.096606381146      -3.330619652997      -2.775759752490      -0.144114812235      -0.279252158286      -0.088628752207
17 2      -2.984355129814      -2.333946447166      -0.911820880912       0.544572398882      -0.003865975031       0.101837662032
18 2      -0.801950817699      -2.887171273182      -1.407328543206       0.129760299074      -0.231913468222      -0.291196695767
19 2      -2.161108104246      -3.124634444412      -0.887625737979      -0.633634541344       0.107834169432      -0.068310833278
20 2      -3.407025373108      -0.208449574008      -2.808126370644       0.213363108814       0.207078864223       0.507636911833
21 2      -1.727480748061      -1.851601255449       0.425257051425      -0.434741525255       0.105149072946       0.136318660002
22 2      -1.156285342135      -1.289272144494      -3.018688509310      -0.485057499288      -0.489093069911       0.256517872552
23 2      -2.805289181591       0.006398473911       0.156453523265      -0.047690097785       0.239211980052       0.485814525103
24 2      -1.783091668071      -2.521947488335      -2.195805663690      -0.618998210643       1.115915176354       0.917502589417
25 2      -2.609528942939      -0.585111127831      -1.143856997528      -0.209331214486       0.231423815858       0.952227889579
26 2      -1.509634811825       0.560470848742      -1.359056698649       0.216456949816       0.125578971034      -0.561824556536
27 2      -1.341018679896       0.972080500799      -1.726946959930      -0.311300707627       0.171894168177       0.219337234243
28 2      -2.286854586333      -2.082534324005      -2.354690596679       0.660801499427       0.999968158386      -1.118311294841
29 2       0.463376304999      -1.374873545673      -1.238350203359       0.099023315580       0.405644919837      -0.379150182751
30 2       0.089006382483      -2.732349131573       0.361478288119       0.595480107795       0.088479064052       0.415121747346
31 2      -1.059181017252      -1.362488511252      -3.057617954534       0.353066450497       0.793701890905       0.164660190597
32 2      -0.994013503126      -0.954979129910      -3.113026311312       0.372247658861      -0.385474370917       0.277641089019
33 2      -2.145223721046      -2.235948548377      -2.678388569453       0.568327450811      -0.016082816112       0.801405314133
34 2      -2.325325677191      -2.070449493047      -2.986584852364      -0.578368136167      -0.036726970665       0.968262976064
35 2      -1.335587331672      -1.013209661031      -2.532838872586       0.289115611521       0.321551749470       0.820840155835
36 2      -2.503891196377      -0.945059687896      -1.202035027712       0.961399979183      -0.243257570930       0.226005012965
37 2      -1.543287844966      -1.868871882268       0.322874279286      -0.202279204112       0.631121516950       0.245178872770
38 2      -1.942819725860      -2.293433488628      -2.465654441300       0.451486219431      -0.388732757047      -0.006361056668
39 2      -1.458706125523       0.840651641449      -1.673313358506       0.204088238769      -0.129109430802      -0.512292756842
40 2       0.694549992218      -1.663442270768      -1.831563897681      -0.197390256944      -0.296028187061      -0.014167477366
41 2      -2.365252287561      -2.144002616743      -1.643887360508       0.028463771689      -1.080701588885       1.114090549738
42 2      -1.152040371959      -2.400662196962      -0.279828514442       0.442244596655      -0.810047354842      -0.343825119257
43 2      -1.153055289783      -1.212983054281      -3.130183433569      -0.344136194085       0.778479029034      -0.009699934609
44 2      -2.057184332781      -2.505955310731      -2.668114040641       0.552334586180      -0.520717149813       0.071906985827
45 2      -2.358097068620      -2.039433015805      -2.646671406174       0.510001268799       0.123775415235      -0.532391107539
46 2      -2.269024514443      -2.161335501181      -2.314511591079      -0.349608948797       0.136546695779      -0.508158204280
47 2      -2.006801710678      -2.261229438456      -2.407203559229      -0.530064782627      -0.610614535392       0.049591285549
48 2      -1.117546851201      -2.490739242041      -0.599401799688      -0.379471750311      -0.913403251595       0.450593049732
49 2      -2.002255455576      -2.297973968864      -2.574668281167      -0.598712315865      -0.656644245766       0.167554404760
50 2       0.471812069331      -1.554708532725      -1.631647534203      -0.204021289646       0.477553791426      -0.003283266607
51 2       0.687278617455      -1.490222124722      -1.638111895988       0.162137441725      -0.347425698502      -0.098756461362
52 2      -2.230865899353      -0.976491077140      -0.906378256035       0.080876326034       0.330000810811      -0.594714080346
53 2      -1.205941417876      -2.313981704307      -0.848928522914      -0.730346272936       0.123326455547      -0.445334067410
54 2      -2.218583347753      -0.968973879179      -0.846647272621       0.120300624059       0.376416157997      -0.591350201554
55 2      -1.054688915858      -0.925411010455      -2.453451980160      -0.235410269637       0.054657365088      -0.412012785236
56 2      -2.197030738536      -2.175274925821      -1.557439518669      -0.073511493714      -1.055837381857      -1.226259900288
57 2      -0.533645622848      -2.623244657653      -1.105648007465      -0.236843806921       0.989768650838       0.093217536115
58 2      -1.417412516054      -1.061393132724      -3.043091460057       0.413867159393       0.283063387990       0.737430119515
59 2      -0.991132022257      -0.945993962249      -2.515874553195      -0.272401881463       0.185395357814      -0.366436345192
60 2      -1.320178931085       0.895038976888      -1.736778329905      -0.300127410189       0.280129272176       0.110026339471
61 2       0.521323598987      -1.308631988319      -1.238425383121       0.004200571453       0.064574789876       1.091947629150
62 2      -1.108630398237       0.265900944341      -1.101614400565       0.034988736733       1.067753314822       0.186017174941
63 2       0.297679687777      -1.141171294995      -1.026942871141       0.072629205071       0.024332334274      -1.187784558579
64 2      -1.153728730108       0.414379363480      -1.144506706852       0.036766115750       1.109612050373       0.025472483873
65 1       2.565435853753       2.125998359185       1.910116171371       0.387196771491       0.124615813382       0.118207434338
66 1       2.020840571430       2.100939160753       2.536427292779       0.403648938467       0.310574517794       0.292169672524
67 1       0.093486756395       1.453857724229       2.153408170042      -0.284491362897      -0.235202885465      -0.578803632086
68 1       1.146515249278       1.461668651477      -0.252653204763       0.373587173297      -0.049157669797       0.023703948187
69 1       1.754752602149       0.386944466316       1.681503353040      -0.022689942721       0.398968703193      -0.068878777698
70 1       1.693771494135       0.374346209113       1.542418872158      -0.140210523838       0.407883727801      -0.233983387000
71 1       1.964129887890       2.054560863076       1.470131125805      -0.461555822820      -0.265789170076       0.315672960559
72 1       0.903726853323       1.324685631046       0.893605511411      -0.095724956129       0.250159761217      -0.011928092947
73 1       2.136405914490       2.000171200762       1.618937077610       0.413345117772      -0.546332778708      -0.345204802161
74 1       0.713632750199       1.364720123646       1.083800652756       0.232759078971       0.283001580507      -0.018441959685
75 1       1.763262141548       0.415633987964       1.667207709617      -0.016347553035       0.510249276361      -0.042570658784
76 1       2.063451126463       1.790839681920       1.757138042154      -0.633906801161       0.646354158264      -0.764616723800
77 1       0.924935825029       1.697397668722       0.556880337490      -0.162301593247      -0.270864112281       0.067894783331
78 1      -0.217593567609       1.578888250361       1.673216285583       0.093248804007      -0.238154515947       0.417648043538
79 1       1.720768727004       0.443294086462       1.773546140814       0.037338963601       0.448852776613      -0.028010531059
80 1       2.111953067854       1.968741281713       2.138290703115       0.674901758272       0.725101037003       0.743818198838
81 1       2.156551659042       2.027860866202       1.612855864514       0.425434859850      -0.564399536960      -0.333471668720
82 1       2.224244329500       2.041957655804       1.747053403997       0.254165767156      -0.373126569491      -0.269806357017
83 1       2.494794752023       2.142478440420       1.992327708212      -0.382831496239       0.148317754376      -0.389379906783
84 1       2.053895139121       1.924454174376       2.813550937680      -0.115883869100       0.351104009875      -0.548821437358
85 1       0.731540290313       1.395496907932       0.788550554673       0.064193014736      -0.439561377651      -0.026090318935
86 1       1.260847718237       1.466492714584      -0.147682946779       0.391856066494      -0.033583998269       0.014193554879
87 1       2.253752612284       2.339923732824       2.338906095834      -0.400012065780       0.354159157927      -0.229234417503
88 1       2.043217531034       1.959912647469       2.815911003465      -0.110132693285       0.363485397811      -0.660812507847
89 1       1.707504763647       2.222727432625       2.595320769111       0.074300862365       0.426571151403       0.643974326726
90 1       2.603690268361       2.120325321629       1.921539824199       0.383534416754       0.126726522722       0.128783680813
91 1       0.772860549488       1.246006195878       0.928705800700      -0.131035204954       0.264815981960      -0.018748464568
92 1       1.911406606662       2.050257909902       2.232490788483      -0.220207006230      -0.415626633273       0.443480117074
93 1      -0.325494218096       1.529800192359       1.643709598034       0.135674407045      -0.123471350432       0.367687134672
94 1       1.391938543278       1.537640767884       0.376898728119      -0.341219448108      -0.352023533671      -0.134003770793
95 1       2.090822483566       1.967182605832       2.066507226282       0.671707916083       0.730834482619       0.766463411782
96 1       1.826122730278       0.722052492321       1.456093294458       0.144418843163       0.128181772388       0.010568654616
97 1       0.722611337119       1.742629413100       1.391228832643       0.171196147951       0.219582975742       0.093304134018
98 1       1.910990317879       1.979759769097       1.885206259294       0.437875722634       0.642653828021       0.629657168594
99 1       2.185382846264       1.704901707682       1.694822684926       0.570649716936      -0.759367565709      -0.513899779081
100 1       1.361522100993       0.196298435390       2.233010656688      -0.211911345887      -0.585918132518      -0.355888315981
101 1       2.142023004885       2.305448663585       1.984112038978      -0.347359778531       0.313949992914      -0.527028960262
102 1       1.266310497656       0.660748851752       0.535735998038      -0.281153119561       0.250924344394       0.051228257910
103 1       1.001986555949       0.587057808592       1.033285793510      -0.011986896098      -0.177375663199      -0.151873392999
104 1       2.172771460691       2.428436187481       2.053176001873      -0.288895868643      -0.285862207844       0.106315518806
105 1       1.431498929723       0.635678714197       1.122703095296       0.174771589096      -0.000323402277       0.242197273702
106 1       1.857414092142       2.435053678957       2.073494571410       0.385993783902      -0.108360680830      -0.376996232466
107 1       1.642819983402       1.539883748193       0.522986055782      -0.357548993183       0.131335636351      -0.464993891758
108 1       0.477528318874       1.514120250734       2.062829310801       0.036815261494       0.043728538126      -0.543566935928
109 1       2.212600454116       1.756449522011       2.724542240305      -0.022884699280      -0.416640133967       0.331560144248
110 1       2.047794130134       1.908731757249       2.450972974217      -0.342298812306      -0.103042222718       0.060522670479
111 1       1.395696548896       1.721881585722       0.559254343341       0.334697701198       0.114289475883       0.434092932264
112 1       0.328449206186       1.830760573103       1.715301691835       0.084642038035       0.088016192640       0.429322192701
113 1       1.393573204039       0.810754215030       1.024963921148       0.003893596476       0.191925655518      -0.424064845373
114 1       1.460745560749       1.534612486039       0.085350040895       0.220056891174       0.325061702147      -0.216623033406
115 1       2.099225842046       1.987899606564       2.632671186330      -0.146944061754       0.613227241316      -0.299350488742
116 1       2.114855331594       2.073352077336       1.599798258342      -0.536008886452       0.363811405762      -0.339063707156
117 1       1.862500514424       1.963920535420       2.011947744409       0.590378769035      -0.399519686208      -0.552439789223
118 1       2.202032007745       2.307733647467       1.832930435200       0.156987126408      -0.199839767675      -0.450129868527
119 1       1.352624633474       0.079897671142       2.098969611895       0.222970986090       0.611389887263      -0.417712581069
120 1       1.659320611649       0.944676470148       0.908564831000      -0.144079631378       0.235183337238      -0.468802712743
121 1       2.203682995015       2.198190791697       1.788115313385       0.513495271542       0.403960652283       0.389064930375
122 1       2.296357535255       1.778694870961       2.717847872577       0.009951727957       0.696260843167       0.370058124798
123 1       0.522267690434       1.810190091175       1.268194267952      -0.091807660093       0.056770860895       0.190485846343
124 1       0.492153534609       1.893916251662       2.150795445294       0.014967236423       0.173301973238       0.334041649356
125 1       1.716900230477       2.092385668842       1.723818256597      -0.609215756813      -0.724720045117       0.627044330916
126 1       1.629425214435      -0.138826706467       1.772427786354       0.150600864035      -0.393063948472       0.208017194247
127 1       2.104716189733       2.137909929274       2.713172670578       0.339327536677       0.308108994590       0.251647582227
128 1       2.221137278257       2.150042169789       1.911686413493       0.508111248726       0.377538518236       0.153671812304
129 1       1.511399627133      -0.364555302743       1.710543697463      -0.164733229023       0.473557521073       0.161387039722
130 1       1.835216643608       2.133835080756       2.574518878406       0.162670732363       0.219384709495       0.615815424254
131 1       0.709580489054       1.767929791687       0.866706077536       0.133345768564      -0.549219963455      -0.157618253722
132 1       2.353071597403       2.222902592664       2.196675649171       0.337401204071      -0.121456829831      -0.043044827397
133 1       2.107908156523       2.301914374941       2.333281256137      -0.546164591454       0.574971638117      -0.254801133387
134 1       1.808281015456       2.166787471526       2.132246799307      -0.626009346732       0.555649111310      -0.898568486233
135 1       1.868161752341       2.029457552732       2.379624705306      -0.244503128875      -0.407857986070       0.453264865690
136 1       1.651090214296       0.917886722736       0.700174498784      -0.179866547640       0.164924447339       0.536688643872
137 1       0.228578983867       1.659631210637       1.632559712486       0.123731758688       0.028968627375      -0.185031370913
138 1       2.162885043922       2.236469235755       2.068535108895       0.298882225446      -0.377760181646      -0.330086914589
139 1       2.311702951625       2.124116751653       2.247443657506      -0.361933795745       0.322280671905      -0.049734433428
140 1       1.778463249501       0.383517717796       1.629242191153      -0.165655525522       0.337732089033      -0.196587451748
141 1       1.460173853826       1.437859625804      -0.036907467207      -0.395332148453      -0.318654238923      -0.279915031108
142 1       1.713427795645       2.103911019230       1.410856990173      -0.475854910876      -0.282458576785       0.578379910608
143 1       1.849830208246       0.454222924599       1.252981705811       0.179895985560       0.242072918786       0.108831236942
144 1       2.132746107289       2.076483906420       2.342034545480       0.322924877187       0.547340573974       0.566981705880
145 1       0.544987075157       1.835685839402       2.340102570320      -0.027450400498       0.138033845848      -0.264756200386
146 1       0.361546763898       1.234840701544       1.137797064325       0.049208468879       0.227608628940      -0.040019716773
147 1       2.342778133695       2.359163744930       2.374770943806      -0.423845090626       0.369430469410      -0.250497429968
148 1       0.462782912032       1.604692543793       1.557760481348      -0.075792729112       0.286394838248      -0.118790346796
149 1      -0.188719421749       1.643199647591       1.525498930677      -0.195617652328      -0.133111039657      -0.398568034881
150 1       1.957533093860       2.062599747856       2.686784868122       0.175174059815      -0.490649197606      -0.206352209276
151 1       2.642848481005       2.245239318279       2.024603955550      -0.239051892699       0.135998366704      -0.099374760973
152 1       2.145411406806       2.273454814140       1.866262621775      -0.530612177261       0.591962626434      -0.484567514325
153 1       1.981399786695       1.901915571201       2.420966261847       0.364970557332       0.264411742162       0.289480015277
154 1       1.728406685778       0.992879962825       0.651154970624       0.228873991156       0.248007597741       0.476084646618
155 1       1.529865175836       1.385411299768      -0.112713253167      -0.280586388285      -0.049139576666       0.132562407836
156 1       1.750409592982       2.006832815605       1.638473884207      -0.453063076601      -0.298745715410       0.642231081065
157 1       2.213129685692       2.064874490068       2.275465224858      -0.174975488354      -0.317875588979       0.466578590365
158 1       0.964730676844       1.666848397539       0.609995852317      -0.185338635394      -0.423608227406       0.129869710784
159 1       1.475293168587       0.787945530983       0.593224818818       0.162770143739       0.127588374695       0.071480163563
160 1       1.872500650172       0.495597768946       2.075899914871      -0.001961421411       0.272664430940       0.146300795834
