ITEM: TIMESTEP
0
ITEM: NUMBER OF ATOMS
160
ITEM: BOX BOUNDS pp pp pp
0.0000000000000000e+00 8.3918832390000002e+00
0.0000000000000000e+00 8.3918832390000002e+00
0.0000000000000000e+00 2.5175649715999999e+01
ITEM: ATOMS id type x y z fx fy fz
1 2       1.218480000000       5.208790000000      22.139920000000      -0.387154372056       0.121756958440      -0.047092304243
2 2       5.212510000000       0.847240000000      13.704060000000       0.022320466819       0.046975255278      -0.220309679102
3 2       7.172400000000       7.419900000000       7.406300000000      -0.027417953059      -0.200181404676      -0.202375081816
4 2       7.302460000000       7.149460000000      15.804050000000      -0.009819919385       0.506644770088       0.096193046943
5 2       5.233270000000       5.262690000000       0.985070000000       0.319456911046       0.004353452934      -0.096768068923
6 2       3.037090000000       3.210860000000       7.227170000000       0.184781072302      -0.123924164485       0.102506956886
7 2       0.953340000000       1.050170000000       1.090040000000       0.068833954658       0.096185957639      -0.088901122024
8 2       5.180490000000       1.034450000000       5.254860000000      -0.003782619815       0.095617566528      -0.142865669551
9 2       3.188330000000       2.973270000000      15.687430000000      -0.073850471875       0.099027803249      -0.009923278716
10 2       5.395820000000       1.119280000000      21.960370000000       0.029842452031       0.003790476605       0.233434058966
11 2       3.144230000000       7.267040000000      11.541870000000      -0.082651244073       0.101088329432      -0.104580226608
12 2       7.439110000000       3.201340000000      19.855950000000      -0.120953851748      -0.415011545152       0.062863446569
13 2       1.020330000000       5.109630000000      13.515710000000      -0.031037531216       0.258078042557       0.109522687930
14 2       7.341350000000       3.228230000000       3.210700000000      -0.316693933747      -0.020382128645       0.098661818249
15 2       5.109670000000       5.346540000000       9.392550000000       0.208463595835      -0.054589612567       0.180019530695
16 2       7.374450000000       7.456100000000      24.156360000000       0.036582759679      -0.160695482622      -0.026436586588
17 2       3.201700000000       7.467020000000      19.972840000000       0.067996352556      -0.164200683169      -0.070694748116
18 2       0.917360000000       1.080740000000       9.543020000000       0.097479851904      -0.243551816825      -0.163115812632
19 2       3.234030000000       7.438200000000       3.102080000000      -0.085768707185      -0.068173418420       0.041634156302
20 2       1.178980000000       1.036010000000      17.860630000000      -0.203768547368      -0.086781071855      -0.103643674130
21 2       3.938610000000       0.188220000000       8.403670000000       0.085280074417      -0.017063840517       0.029392802962
22 2       6.151820000000       6.127960000000      12.564620000000       0.333564726873       0.009449692735      -0.182016978271
23 2       2.167740000000       2.137120000000      20.994960000000      -0.008632712620      -0.134138101755       0.053441574595
24 2       6.422210000000       6.308260000000      20.949920000000       0.001857903193       0.043018809834       0.345656513283
25 2       1.968710000000       6.412860000000       8.303820000000      -0.127527887511      -0.179414003047      -0.043324062661
26 2       8.341980000000       2.066270000000       6.256270000000      -0.252221743256      -0.144620193843       0.112192646523
27 2       1.995180000000       2.099160000000       4.229710000000       0.153795436690      -0.074070849746      -0.209011660262
28 2       0.052180000000       2.018390000000      14.648940000000      -0.087747551877      -0.049895936318       0.400375947183
29 2       0.164660000000       6.218200000000      18.836710000000       0.021576664699       0.349359383016       0.291820232110
30 2       6.284160000000       0.054860000000       2.108220000000       0.022161913180      -0.019295026475      -0.050629081064
31 2       6.110380000000       0.075220000000      10.552250000000       0.436300990952      -0.160846203393       0.204170886291
32 2       4.183260000000       2.202220000000      18.833900000000       0.331665733644       0.042391711801      -0.228039637147
33 2       6.425020000000       8.354440000000      18.890010000000      -0.253975290338       0.447381363409      -0.245170206356
34 2       6.369250000000       2.052980000000      16.765100000000      -0.074579335334      -0.506584586538       0.279177547390
35 2       0.160300000000       2.071070000000      23.131580000000      -0.060734526289       0.253197646113       0.113474227089
36 2       2.039770000000       8.177910000000      14.779340000000      -0.133566142317       0.114060593215       0.062302433840
37 2       4.020850000000       6.039670000000      14.692770000000       0.154046788398       0.080396940489       0.118622597796
38 2       6.259970000000       4.214170000000       6.320420000000      -0.295665779857       0.187919604374      -0.299886163063
39 2       4.220990000000       6.400610000000      23.115410000000       0.336321990720       0.399764651312      -0.133920727529
40 2       0.094310000000       4.196420000000      16.780730000000       0.171667914007      -0.310166322431      -0.121601775300
41 2       2.091030000000       4.247720000000       2.096050000000      -0.001722173491       0.001772961801       0.002917468552
42 2       4.144690000000       4.315820000000      20.926170000000       0.272519559167      -0.032261204781      -0.290439070458
43 2       4.150300000000       8.200170000000      16.844690000000       0.450961732417       0.131440952664       0.188790115534
44 2       6.321400000000       4.251230000000      23.030490000000       0.394419041466      -0.106500871286       0.307718436532
45 2       8.328780000000       6.224750000000      10.467490000000      -0.156197146094       0.272684070966       0.249476195184
46 2       8.377040000000       8.322000000000      12.610580000000      -0.165352579888      -0.182967783470      -0.194639301984
47 2       0.028120000000       4.286690000000       0.041940000000      -0.381624375574      -0.071463872182      -0.316276742080
48 2       6.230930000000       4.071960000000      14.657190000000       0.133511992577       0.020500323870      -0.323633884740
49 2       4.148810000000       4.200500000000       4.160500000000       0.369881507480       0.132035713685       0.247024691454
50 2       2.131300000000       2.040930000000      12.516830000000       0.257435378944      -0.195926974987       0.228330736182
51 2       2.099160000000       4.123100000000      10.505040000000       0.116805758181       0.273222811398      -0.186619136339
52 2       0.042170000000       6.448870000000       2.201570000000       0.055883268576      -0.212177374896      -0.007922943764
53 2       0.204710000000       8.349110000000      21.082280000000      -0.230383819866      -0.061262359771       0.018449290959
54 2       4.133030000000       2.043250000000       1.990630000000      -0.054389761509       0.211192017044       0.002697499806
55 2       6.218390000000       2.057720000000      25.129400000000      -0.028207681895       0.285534969445      -0.173145943795
56 2       8.370110000000       4.147940000000       8.388870000000      -0.067615274972       0.083327252778      -0.024565105980
57 2       6.096050000000       2.170650000000       8.494180000000       0.175985135995       0.116917696548      -0.025118363282
58 2       4.028840000000       6.437240000000       6.235150000000       0.072942968982      -0.401718892800      -0.231475567602
59 2       6.351520000000       6.436170000000       4.250160000000       0.055314959542      -0.360731534221       0.140957127467
60 2       2.184810000000       6.396360000000      25.141480000000      -0.234515186825       0.098410652457       0.198476105207
61 2       5.175400000000       3.126970000000      11.582200000000      -0.196488251883      -0.014238191568       0.056294706667
62 2       3.183620000000       1.077180000000      24.105240000000       0.108254970606      -0.333661424433       0.053210588835
63 2       3.173220000000       5.181420000000      17.826000000000      -0.043248819939      -0.019930795800      -0.028663748027
64 2       0.990240000000       7.413540000000       5.240510000000      -0.031586241047       0.168152768431      -0.052304067535
65 1       2.124360000000       2.147120000000       2.122950000000       0.228471179287       0.159323389271       0.216920661866
66 1       6.161950000000       6.244180000000       6.257490000000       0.075951960095      -0.064968910084      -0.150866230446
67 1       4.261420000000       8.326750000000       6.439310000000       0.043254104800       0.130405949873      -0.108697895527
68 1       4.315760000000       0.129390000000       2.092390000000      -0.033604702597       0.000079716671       0.029566548435
69 1       8.272130000000       6.378210000000       4.128180000000       0.290757018442      -0.043654785809       0.249145037930
70 1       0.029210000000       2.186260000000       4.280590000000       0.166581869127      -0.019774441860       0.202284703149
71 1       6.207330000000       4.174610000000       8.362920000000       0.263690846577      -0.235922567972      -0.130529912787
72 1       1.913160000000       4.448450000000       0.230160000000      -0.016905072141      -0.054313832682       0.100537672317
73 1       8.381360000000       4.361460000000       2.081220000000       0.281266924401       0.085878039699      -0.132412499983
74 1       8.136260000000       4.022730000000       6.525360000000      -0.023154701373      -0.013137216725       0.116625992839
75 1       4.296100000000       2.110780000000       0.057510000000      -0.317375663189       0.077307489520      -0.176900215141
76 1       4.023780000000       6.394170000000       8.259820000000      -0.125055289039       0.082842325863      -0.099798229722
77 1       2.115620000000       0.080490000000       4.178140000000       0.079006575696       0.157324310087      -0.003451103257
78 1       6.157130000000       8.337850000000       4.098060000000      -0.043706326728       0.174063786386       0.038396411053
79 1       2.104630000000       6.406740000000       6.367680000000      -0.227627826653       0.000498661992      -0.267853270825
80 1       6.234240000000       2.126400000000       2.034650000000      -0.081720379401      -0.151873545017      -0.098762516764
81 1       4.191170000000       4.131570000000       2.112740000000      -0.279706541888      -0.114747740728       0.151878604438
82 1       4.229230000000       4.337700000000       6.183420000000      -0.161962929926      -0.121875953034       0.006732364704
83 1       8.191950000000       2.106120000000       8.378370000000      -0.027000579789       0.261468077610      -0.271627457988
84 1       0.043910000000       6.316390000000       0.088290000000       0.304871533692      -0.110190152225      -0.093203445925
85 1       8.251060000000       0.066600000000       6.314680000000       0.085665495385       0.168279800782      -0.048790209165
86 1       8.255540000000       8.365220000000       2.100940000000       0.036451077455       0.000632195397      -0.028775025386
87 1       4.246120000000       6.243900000000       4.241170000000      -0.130419695955       0.036213321565       0.100529315443
88 1       4.131440000000       2.173040000000       4.116760000000      -0.267292515885       0.048353963122       0.061398264924
89 1       6.264970000000       2.168200000000       6.364260000000       0.255400777726       0.038642600676      -0.006796025681
90 1       2.056880000000       6.346130000000       2.068130000000      -0.220936387756      -0.145008486191      -0.171205721724
91 1       2.265660000000       4.047370000000       3.960560000000       0.038846755918       0.075270711971      -0.068750808986
92 1       6.170980000000       4.329490000000       4.280730000000       0.088942652451       0.032634955938       0.040978672999
93 1       6.396630000000       0.153320000000       0.113540000000       0.040228286599      -0.100146845749      -0.005069967646
94 1       2.040150000000       8.343160000000       8.546050000000       0.130078098637       0.283807068899       0.097275380203
95 1       6.334090000000       6.369600000000       2.162200000000       0.071720532635       0.122837393300       0.133125090911
96 1       1.918240000000       2.172070000000       6.177140000000      -0.024277386014      -0.094735731333       0.094787844855
97 1       2.019320000000       2.158800000000      10.565630000000       0.164569327789       0.053472479204       0.052241476210
98 1       6.214530000000       6.132040000000      14.613700000000      -0.155315280054      -0.212007323374      -0.181568186276
99 1       4.116630000000       8.204000000000      14.826690000000      -0.028982223224      -0.189919737900       0.120076795106
100 1       4.220360000000       8.221380000000      10.359830000000      -0.171993353391       0.017163703168       0.094564821847
101 1       8.246420000000       6.299570000000      12.492590000000       0.042710859838      -0.122534338908      -0.044055995734
102 1       0.173520000000       1.802290000000      12.782610000000      -0.023743054845      -0.012287690958      -0.085845737232
103 1       6.557180000000       3.915360000000      16.541780000000      -0.050552123728       0.056663905451       0.027785980198
104 1       2.029740000000       4.322120000000       8.402670000000      -0.244839055725       0.004383002727       0.237216322163
105 1       0.131700000000       4.352280000000      10.253420000000      -0.015328534685      -0.009313561854      -0.069283881246
106 1       0.002450000000       4.026430000000      14.698480000000      -0.187392055908      -0.059840802265       0.197887828197
107 1       4.162410000000       2.092720000000       8.237100000000      -0.285399443650      -0.131634478714      -0.123300625681
108 1       4.132370000000       6.295300000000      16.661680000000      -0.038570700650      -0.057774953877       0.315843057531
109 1       2.030150000000       8.349230000000      12.649100000000      -0.040539743176       0.238164655553      -0.102486256493
110 1       6.343320000000       8.229120000000      12.542860000000       0.032181958661       0.123590227057      -0.099325320591
111 1       2.105930000000       6.261910000000      14.528440000000       0.092554455482      -0.310733687461      -0.148209497783
112 1       6.134830000000       2.003550000000      10.421460000000       0.043717904918       0.235521063793       0.232382760988
113 1       4.112660000000       4.247340000000      10.498880000000      -0.195968809648      -0.120982972280       0.116321617773
114 1       4.285500000000       4.138540000000      14.768670000000      -0.045923413710       0.169784418610       0.039209040924
115 1       0.028100000000       2.036340000000      16.680770000000      -0.038014835683       0.236230811112       0.095502532896
116 1       8.348390000000       6.305420000000       8.421550000000       0.219486531632      -0.259411272733       0.154011316540
117 1       0.038850000000       8.276610000000      14.687340000000       0.211620343450       0.124539264769      -0.125787958646
118 1       8.206240000000       8.261400000000      10.588410000000       0.157441445583       0.142988789882       0.018873365564
119 1       4.262470000000       6.362100000000      12.735630000000      -0.107100927736       0.017307697584      -0.010277965313
120 1       4.157700000000       1.949120000000      12.637820000000      -0.186480856536      -0.005170265537      -0.038066247521
121 1       6.385330000000       1.967380000000      14.717060000000       0.174263322767       0.314783906716       0.064269837619
122 1       1.992360000000       6.214130000000      10.422050000000      -0.046533780616      -0.197637621512       0.031549137177
123 1       2.052130000000       4.011400000000      12.455910000000       0.071615203858      -0.007706616919      -0.007339710020
124 1       6.222850000000       4.206550000000      12.707280000000      -0.085807189085      -0.223168056518      -0.250009961189
125 1       6.119690000000       0.109720000000       8.529360000000      -0.093420042739       0.132877167308       0.104575940232
126 1       2.232170000000       0.048860000000      16.694940000000      -0.169990540554      -0.042003756610       0.093449160561
127 1       6.302680000000       6.332050000000      10.539550000000       0.075126655006      -0.114308295191       0.186277945515
128 1       2.095170000000       1.881460000000      14.604660000000      -0.275727120847       0.055602549428      -0.264032235323
129 1       2.276750000000       2.007640000000      18.999610000000      -0.058550782561      -0.092990119150       0.040477076322
130 1       6.347550000000       6.320820000000      22.984540000000      -0.215430782462      -0.048330450687       0.054133741143
131 1       4.333300000000       0.034570000000      23.034180000000       0.025360113387      -0.208118444612       0.057661091266
132 1       4.380740000000       0.070280000000      18.820510000000      -0.031990455218      -0.228768723308      -0.000173723616
133 1       0.110280000000       6.352180000000      21.006350000000      -0.053392716671       0.126194129896      -0.255012878668
134 1       0.111560000000       2.077490000000      21.041890000000       0.203989343575       0.066068814670       0.120448075461
135 1       6.404970000000       4.166830000000      25.084380000000      -0.111420134766      -0.055783415971      -0.028236437946
136 1       2.105740000000       4.047840000000      16.763190000000      -0.105026375092       0.047837337222       0.044515353353
137 1       0.064890000000       4.254940000000      18.748280000000       0.048985041868       0.173955343659      -0.152849914076
138 1       8.352540000000       4.153430000000      23.179750000000       0.112552149565       0.092501856438      -0.001650571095
139 1       4.347140000000       1.944430000000      16.853250000000       0.017722899743       0.215285273215      -0.018480058878
140 1       4.159400000000       6.301970000000      25.079270000000      -0.188942330156       0.004499419698      -0.154034747337
141 1       2.102710000000       0.143920000000      20.981520000000       0.018676170661      -0.010873476778      -0.006833918173
142 1       6.495580000000       0.011450000000      20.907520000000       0.034381908465      -0.310335068692      -0.154773782309
143 1       2.257680000000       6.322090000000      23.196070000000      -0.038529983717       0.072684621467      -0.048625228284
144 1       6.309920000000       1.999500000000      18.801640000000      -0.085752666137       0.081376390453      -0.045827473039
145 1       4.222340000000       4.127200000000      18.986600000000      -0.019512610783       0.209073599152      -0.341622104978
146 1       4.465370000000       4.469890000000      22.815670000000      -0.071457193230      -0.071443126615       0.026699033344
147 1       8.325080000000       2.246510000000      25.131730000000       0.141300787870      -0.017989899151      -0.096202760807
148 1       0.027000000000       6.148060000000      16.870410000000       0.207552595791      -0.065257265137       0.079964587235
149 1       8.315520000000       0.158340000000      22.987130000000      -0.027625811513      -0.129467477327       0.089652863487
150 1       0.059370000000       8.354550000000      18.966740000000      -0.005036912373      -0.294346583524      -0.101561585010
151 1       4.364730000000       6.363510000000      20.999140000000       0.096724450165      -0.260945090667       0.150360714034
152 1       4.256250000000       2.203960000000      20.880120000000      -0.214586143657       0.227642257326      -0.081222405775
153 1       6.424600000000       2.245790000000      23.126230000000      -0.046590997271       0.026411958047       0.098854443532
154 1       2.155030000000       6.328170000000      18.917240000000      -0.046991619620       0.104314014352       0.041944993834
155 1       2.225130000000       4.101050000000      21.056090000000       0.027680989132      -0.023126833083       0.014058279969
156 1       6.382780000000       4.299180000000      20.997400000000      -0.285954768385       0.091835071560       0.119638750731
157 1       6.257360000000       0.007200000000      16.857430000000       0.075481363560       0.006491776899       0.074351658583
158 1       2.074900000000       0.015410000000       0.015800000000      -0.070710635476      -0.099320711870       0.000341800701
159 1       6.619830000000       6.476310000000      19.082760000000      -0.097648044891      -0.040208498161      -0.077540860152
160 1       2.063660000000       2.076210000000      22.985770000000       0.147606143184      -0.030241965738       0.157708945757
