160
Config_type=bulk_gamma_phase Weight=1.0 Lattice="8.391883239 0.000000000 0.000000000 0.000000000 8.391883239 0.000000000 0.000000000 0.000000000 25.175649716" Energy=-1360.63185120 Virial="-10.86919 0.18074 -19.78039 0.18074 -11.53348 -2.18158 -19.78039 -2.18158 -7.37884" pbc="T T T" Properties=species:S:1:pos:R:3:forces:R:3
Ga	      1.21848      5.20879     22.13992        -0.004764      0.011078     -0.016356
Ga	      5.21251      0.84724     13.70406         0.002333     -0.004450     -0.003833
Ga	      7.17240      7.41990      7.40630        -0.000896      0.003274     -0.022218
Ga	      7.30246      7.14946     15.80405         0.009950     -0.003603      0.007742
Ga	      5.23327      5.26269      0.98507         0.020143     -0.014251      0.003023
Ga	      3.03709      3.21086      7.22717        -0.003599     -0.010451     -0.007774
Ga	      0.95334      1.05017      1.09004        -0.005862     -0.005573      0.004991
Ga	      5.18049      1.03445      5.25486         0.013208     -0.014925     -0.015733
Ga	      3.18833      2.97327     15.68743        -0.008810     -0.009809     -0.010275
Ga	      5.39582      1.11928     21.96037         0.010483      0.001377      0.008633
Ga	      3.14423      7.26704     11.54187         0.008290      0.002148     -0.013947
Ga	      7.43911      3.20134     19.85595        -0.003432      0.017166     -0.004748
Ga	      1.02033      5.10963     13.51571         0.009925     -0.023876      0.003861
Ga	      7.34135      3.22823      3.21070         0.011744      0.003591      0.014097
Ga	      5.10967      5.34654      9.39255         0.002110     -0.008569      0.008826
Ga	      7.37445      7.45610     24.15636         0.015062      0.008535     -0.003167
Ga	      3.20170      7.46702     19.97284         0.001511      0.003245      0.019371
Ga	      0.91736      1.08074      9.54302        -0.007479     -0.015922     -0.005334
Ga	      3.23403      7.43820      3.10208        -0.003866      0.031819     -0.005964
Ga	      1.17898      1.03601     17.86063         0.013127     -0.002990     -0.011518
Ga	      3.93861      0.18822      8.40367         0.022504      0.005749      0.004511
Ga	      6.15182      6.12796     12.56462        -0.012553     -0.001633      0.022997
Ga	      2.16774      2.13712     20.99496        -0.011874     -0.006255     -0.004686
Ga	      6.42221      6.30826     20.94992         0.013076      0.018082     -0.005688
Ga	      1.96871      6.41286      8.30382        -0.012485      0.017302     -0.011269
Ga	      8.34198      2.06627      6.25627         0.014684      0.018146      0.003016
Ga	      1.99518      2.09916      4.22971         0.012963      0.001371      0.018292
Ga	      0.05218      2.01839     14.64894        -0.005068      0.001466      0.013489
Ga	      0.16466      6.21820     18.83671        -0.005976      0.016036      0.006804
Ga	      6.28416      0.05486      2.10822         0.012267     -0.018821     -0.000365
Ga	      6.11038      0.07522     10.55225        -0.007488     -0.009458     -0.007535
Ga	      4.18326      2.20222     18.83390        -0.000290      0.005305      0.018695
Ga	      6.42502      8.35444     18.89001         0.012050      0.015418     -0.010744
Ga	      6.36925      2.05298     16.76510        -0.001136      0.004975     -0.002696
Ga	      0.16030      2.07107     23.13158        -0.000552      0.013807     -0.000990
Ga	      2.03977      8.17791     14.77934         0.009847      0.008173     -0.006715
Ga	      4.02085      6.03967     14.69277         0.012364      0.024564      0.002443
Ga	      6.25997      4.21417      6.32042         0.024399     -0.003659     -0.005410
Ga	      4.22099      6.40061     23.11541         0.001569      0.002476     -0.007298
Ga	      0.09431      4.19642     16.78073         0.019376     -0.017304      0.008474
Ga	      2.09103      4.24772      2.09605         0.005690     -0.008536      0.002082
Ga	      4.14469      4.31582     20.92617         0.013000      0.004019      0.003361
Ga	      4.15030      8.20017     16.84469         0.014166     -0.010101      0.001136
Ga	      6.32140      4.25123     23.03049        -0.021562     -0.014903     -0.025582
Ga	      8.32878      6.22475     10.46749         0.020384      0.002880     -0.001892
Ga	      8.37704      8.32200     12.61058         0.009759      0.013803     -0.001836
Ga	      0.02812      4.28669      0.04194         0.004538      0.005563     -0.007712
Ga	      6.23093      4.07196     14.65719         0.011165     -0.006820      0.001054
Ga	      4.14881      4.20050      4.16050         0.006447     -0.006022     -0.030567
Ga	      2.13130      2.04093     12.51683         0.003914      0.008753      0.003594
Ga	      2.09916      4.12310     10.50504        -0.003318     -0.010663     -0.000186
Ga	      0.04217      6.44887      2.20157        -0.019288     -0.007336     -0.026590
Ga	      0.20471      8.34911     21.08228        -0.006106      0.011330     -0.017113
Ga	      4.13303      2.04325      1.99063        -0.000307      0.007951     -0.017726
Ga	      6.21839      2.05772     25.12940         0.001572      0.000969     -0.006629
Ga	      8.37011      4.14794      8.38887        -0.018377      0.010942     -0.003001
Ga	      6.09605      2.17065      8.49418        -0.005622     -0.014182     -0.018084
Ga	      4.02884      6.43724      6.23515         0.012068      0.017145      0.012042
Ga	      6.35152      6.43617      4.25016        -0.015298     -0.009579     -0.006482
Ga	      2.18481      6.39636     25.14148        -0.004385      0.015399      0.012316
Ga	      5.17540      3.12697     11.58220        -0.011066     -0.002202     -0.006047
Ga	      3.18362      1.07718     24.10524        -0.010489     -0.008925      0.003752
Ga	      3.17322      5.18142     17.82600         0.009221      0.004730      0.005412
Ga	      0.99024      7.41354      5.24051         0.002531     -0.000700     -0.008107
O	      2.12436      2.14712      2.12295         0.006557      0.001373      0.003114
O	      6.16195      6.24418      6.25749         0.000219     -0.001170     -0.000191
O	      4.26142      8.32675      6.43931         0.001090      0.004306     -0.005282
O	      4.31576      0.12939      2.09239        -0.007141     -0.009560      0.005947
O	      8.27213      6.37821      4.12818        -0.000935     -0.006077     -0.000440
O	      0.02921      2.18626      4.28059         0.002066     -0.002597      0.006392
O	      6.20733      4.17461      8.36292        -0.001761      0.006993      0.005800
O	      1.91316      4.44845      0.23016         0.001829      0.007891      0.007272
O	      8.38136      4.36146      2.08122        -0.000578     -0.008788     -0.003016
O	      8.13626      4.02273      6.52536        -0.015391     -0.002679      0.007177
O	      4.29610      2.11078      0.05751        -0.002516     -0.001885      0.001430
O	      4.02378      6.39417      8.25982         0.000059     -0.007766      0.002230
O	      2.11562      0.08049      4.17814        -0.006951     -0.008211      0.006656
O	      6.15713      8.33785      4.09806        -0.012359     -0.002461      0.004590
O	      2.10463      6.40674      6.36768         0.001057      0.001546      0.000989
O	      6.23424      2.12640      2.03465         0.000419      0.003934      0.003214
O	      4.19117      4.13157      2.11274        -0.009402     -0.005465      0.002840
O	      4.22923      4.33770      6.18342        -0.003487      0.001242      0.010406
O	      8.19195      2.10612      8.37837         0.003249      0.004046     -0.008817
O	      0.04391      6.31639      0.08829         0.000549     -0.003575     -0.001131
O	      8.25106      0.06660      6.31468        -0.005033     -0.006447     -0.005150
O	      8.25554      8.36522      2.10094         0.004044     -0.004219     -0.005199
O	      4.24612      6.24390      4.24117        -0.002223     -0.009571      0.002688
O	      4.13144      2.17304      4.11676        -0.010490      0.001767     -0.005707
O	      6.26497      2.16820      6.36426        -0.000276      0.000948     -0.002339
O	      2.05688      6.34613      2.06813         0.007582      0.008523      0.002071
O	      2.26566      4.04737      3.96056        -0.001259     -0.002596     -0.004154
O	      6.17098      4.32949      4.28073        -0.004778     -0.001667      0.000048
O	      6.39663      0.15332      0.11354         0.004383      0.012241     -0.001240
O	      2.04015      8.34316      8.54605        -0.000419      0.002464      0.006435
O	      6.33409      6.36960      2.16220        -0.002659     -0.010090     -0.004347
O	      1.91824      2.17207      6.17714         0.000312      0.003882      0.004909
O	      2.01932      2.15880     10.56563        -0.007513      0.010109      0.002261
O	      6.21453      6.13204     14.61370         0.004560     -0.009519      0.002708
O	      4.11663      8.20400     14.82669        -0.000456      0.004936      0.002562
O	      4.22036      8.22138     10.35983         0.002738     -0.004785     -0.005024
O	      8.24642      6.29957     12.49259        -0.000769     -0.000789      0.013729
O	      0.17352      1.80229     12.78261         0.003519      0.002138      0.014260
O	      6.55718      3.91536     16.54178         0.003930      0.001750     -0.001979
O	      2.02974      4.32212      8.40267        -0.003745     -0.003569     -0.002748
O	      0.13170      4.35228     10.25342        -0.010200      0.009097     -0.000822
O	      0.00245      4.02643     14.69848         0.000706     -0.007401     -0.007937
O	      4.16241      2.09272      8.23710        -0.003102     -0.004199     -0.001030
O	      4.13237      6.29530     16.66168        -0.011577      0.001156      0.005202
O	      2.03015      8.34923     12.64910        -0.004599     -0.005099     -0.000356
O	      6.34332      8.22912     12.54286         0.003455     -0.002600      0.002437
O	      2.10593      6.26191     14.52844         0.000679     -0.012341     -0.003597
O	      6.13483      2.00355     10.42146        -0.005186      0.003551      0.001922
O	      4.11266      4.24734     10.49888         0.000282      0.007169     -0.003991
O	      4.28550      4.13854     14.76867        -0.002006     -0.008773      0.014948
O	      0.02810      2.03634     16.68077         0.000395     -0.003690      0.008292
O	      8.34839      6.30542      8.42155        -0.012416      0.006121     -0.003582
O	      0.03885      8.27661     14.68734        -0.003167     -0.010168      0.003597
O	      8.20624      8.26140     10.58841         0.000445      0.008472     -0.005742
O	      4.26247      6.36210     12.73563         0.002255      0.000166     -0.001841
O	      4.15770      1.94912     12.63782        -0.004791      0.006439     -0.001243
O	      6.38533      1.96738     14.71706        -0.009117     -0.004043     -0.003222
O	      1.99236      6.21413     10.42205         0.017620     -0.000730     -0.003610
O	      2.05213      4.01140     12.45591        -0.017532      0.001612      0.001790
O	      6.22285      4.20655     12.70728        -0.002459      0.001615     -0.001546
O	      6.11969      0.10972      8.52936         0.003291     -0.015245     -0.001767
O	      2.23217      0.04886     16.69494        -0.006885      0.002405      0.000619
O	      6.30268      6.33205     10.53955        -0.003629      0.001458     -0.006517
O	      2.09517      1.88146     14.60466         0.001868     -0.003409      0.002679
O	      2.27675      2.00764     18.99961        -0.002947     -0.005034      0.006371
O	      6.34755      6.32082     22.98454         0.000246      0.006185      0.005126
O	      4.33330      0.03457     23.03418        -0.004799      0.015581      0.011460
O	      4.38074      0.07028     18.82051        -0.004995     -0.007077      0.001473
O	      0.11028      6.35218     21.00635         0.001477      0.001330     -0.007768
O	      0.11156      2.07749     21.04189        -0.012147      0.008431      0.001662
O	      6.40497      4.16683     25.08438        -0.002514     -0.000566      0.008665
O	      2.10574      4.04784     16.76319         0.007575     -0.001632      0.004576
O	      0.06489      4.25494     18.74828        -0.009115     -0.003986      0.003526
O	      8.35254      4.15343     23.17975        -0.009138     -0.003986     -0.011576
O	      4.34714      1.94443     16.85325         0.006868     -0.012696     -0.003363
O	      4.15940      6.30197     25.07927        -0.006896     -0.001835      0.008571
O	      2.10271      0.14392     20.98152        -0.000593      0.001463      0.000441
O	      6.49558      0.01145     20.90752        -0.005073     -0.001531      0.004406
O	      2.25768      6.32209     23.19607        -0.002401      0.010376     -0.003115
O	      6.30992      1.99950     18.80164        -0.009025      0.003024      0.005670
O	      4.22234      4.12720     18.98660         0.003761     -0.012530      0.000008
O	      4.46537      4.46989     22.81567         0.001316     -0.001872      0.001922
O	      8.32508      2.24651     25.13173         0.004308      0.003057     -0.000034
O	      0.02700      6.14806     16.87041         0.005203     -0.005817      0.004527
O	      8.31552      0.15834     22.98713        -0.008291      0.006111     -0.001244
O	      0.05937      8.35455     18.96674         0.005682     -0.004948     -0.001124
O	      4.36473      6.36351     20.99914        -0.000204     -0.001109      0.008586
O	      4.25625      2.20396     20.88012         0.008405     -0.005754      0.007097
O	      6.42460      2.24579     23.12623        -0.003403      0.002684      0.002559
O	      2.15503      6.32817     18.91724         0.002279      0.002630     -0.002822
O	      2.22513      4.10105     21.05609         0.016522     -0.000881      0.009848
O	      6.38278      4.29918     20.99740        -0.010960     -0.007827     -0.000651
O	      6.25736      0.00720     16.85743        -0.003490     -0.008329      0.001153
O	      2.07490      0.01541      0.01580        -0.011207      0.016213      0.009032
O	      6.61983      6.47631     19.08276        -0.003093      0.006998      0.010973
O	      2.06366      2.07621     22.98577        -0.011201     -0.001906      0.004196
