ITEM: TIMESTEP
0
ITEM: NUMBER OF ATOMS
80
ITEM: BOX BOUNDS pp pp pp
0.0000000000000000e+00 9.4862321109999996e+00
0.0000000000000000e+00 9.4862321109999996e+00
0.0000000000000000e+00 9.4862321109999996e+00
ITEM: ATOMS id type x y z fx fy fz
1 2       7.114670000000       2.371560000000       2.371560000000       0.000053565310      -0.000032260690      -0.000013628899
2 2       7.114670000000       4.401240000000       4.743120000000       0.000049475573      -0.045091166486      -0.000044887676
3 2       0.000000000000       7.114670000000       0.341870000000       0.000031507452       0.000076466700       0.045106252315
4 2       0.000000000000       2.371560000000       4.401240000000       0.000024518996      -0.000012782689      -0.045106678533
5 2       0.341870000000       0.000000000000       7.114670000000       0.045106252315       0.000031507452       0.000076466700
6 2       0.341870000000       4.743120000000       2.371560000000       0.045129892399      -0.000051877551       0.000014211190
7 2       2.371560000000       4.401240000000       0.000000000000      -0.000012782689      -0.045106678533       0.000024518996
8 2       2.371560000000       7.114670000000       2.371560000000      -0.000013628899       0.000053565310      -0.000032260690
9 2       2.371560000000       2.371560000000       2.371560000000       0.000003428632       0.000003428632       0.000003428632
10 2       2.371560000000       2.371560000000       7.114670000000      -0.000032260690      -0.000013628899       0.000053565310
11 2       2.371560000000       0.341870000000       4.743120000000       0.000014211190       0.045129892399      -0.000051877551
12 2       4.401240000000       0.000000000000       2.371560000000      -0.045106678533       0.000024518996      -0.000012782689
13 2       4.401240000000       4.743120000000       7.114670000000      -0.045091166486      -0.000044887676       0.000049475573
14 2       4.743120000000       2.371560000000       0.341870000000      -0.000051877551       0.000014211190       0.045129892399
15 2       4.743120000000       7.114670000000       4.401240000000      -0.000044887676       0.000049475573      -0.045091166486
16 2       7.114670000000       0.341870000000       0.000000000000       0.000076466700       0.045106252315       0.000031507452
17 2       2.371560000000       7.114670000000       7.114670000000       0.000005428096       0.000080096559       0.000082098107
18 2       2.371560000000       9.144360000000       0.000000000000      -0.000003987931      -0.045098649936       0.000002891464
19 2       4.743120000000       2.371560000000       5.084990000000      -0.000073502336      -0.000030979992       0.045065769049
20 2       4.743120000000       7.114670000000       9.144360000000      -0.000080492459       0.000094662523      -0.045083138514
21 2       5.084990000000       4.743120000000       2.371560000000       0.045065769049      -0.000073502336      -0.000030979992
22 2       5.084990000000       0.000000000000       7.114670000000       0.045042121986      -0.000004098539       0.000067674697
23 2       7.114670000000       9.144360000000       4.743120000000       0.000094662523      -0.045083138514      -0.000080492459
24 2       7.114670000000       2.371560000000       7.114670000000       0.000082098107       0.000005428096       0.000080096559
25 2       7.114670000000       7.114670000000       7.114670000000       0.000034932216       0.000034932216       0.000034932216
26 2       7.114670000000       7.114670000000       2.371560000000       0.000080096559       0.000082098107       0.000005428096
27 2       7.114670000000       5.084990000000       0.000000000000       0.000067674697       0.045042121986      -0.000004098539
28 2       9.144360000000       4.743120000000       7.114670000000      -0.045083138514      -0.000080492459       0.000094662523
29 2       9.144360000000       0.000000000000       2.371560000000      -0.045098649936       0.000002891464      -0.000003987931
30 2       0.000000000000       7.114670000000       5.084990000000      -0.000004098539       0.000067674697       0.045042121986
31 2       0.000000000000       2.371560000000       9.144360000000       0.000002891464      -0.000003987931      -0.045098649936
32 2       2.371560000000       5.084990000000       4.743120000000      -0.000030979992       0.045065769049      -0.000073502336
33 1       8.406740000000       5.807100000000       1.502480000000      -0.043003743963       0.025902432562       0.027194056422
34 1       8.406740000000       3.679130000000       3.240640000000      -0.042986356339      -0.025853258576      -0.027240906869
35 1       8.422250000000       1.502480000000       1.079490000000      -0.025956788144       0.027187983284       0.043044212467
36 1       8.422250000000       3.240640000000       5.822600000000      -0.025940279634      -0.027250024540       0.043130691852
37 1       1.063990000000       3.240640000000       1.079490000000       0.025838107522      -0.027239865241       0.043014561091
38 1       1.063990000000       1.502480000000       5.822600000000       0.025844510107       0.027194239452       0.043101477179
39 1       1.079490000000       8.422250000000       1.502480000000       0.043044212467      -0.025956788144       0.027187983284
40 1       1.079490000000       1.063990000000       3.240640000000       0.043014561091       0.025838107522      -0.027239865241
41 1       1.502480000000       5.822600000000       1.063990000000       0.027194239452       0.043101477179       0.025844510107
42 1       1.502480000000       3.663630000000       3.679130000000       0.027177111649      -0.043036545262      -0.025879339535
43 1       1.502480000000       1.079490000000       8.422250000000       0.027187983284       0.043044212467      -0.025956788144
44 1       1.502480000000       8.406740000000       5.807100000000       0.027194056422      -0.043003743963       0.025902432562
45 1       3.240640000000       3.663630000000       5.807100000000      -0.027237926231      -0.043053498104       0.025905609922
46 1       3.240640000000       1.079490000000       1.063990000000      -0.027239865241       0.043014561091       0.025838107522
47 1       3.240640000000       8.406740000000       3.679130000000      -0.027240906869      -0.042986356339      -0.025853258576
48 1       3.240640000000       5.822600000000       8.422250000000      -0.027250024540       0.043130691852      -0.025940279634
49 1       3.663630000000       3.679130000000       1.502480000000      -0.043036545262      -0.025879339535       0.027177111649
50 1       3.663630000000       5.807100000000       3.240640000000      -0.043053498104       0.025905609922      -0.027237926231
51 1       3.679130000000       1.502480000000       3.663630000000      -0.025879339535       0.027177111649      -0.043036545262
52 1       3.679130000000       3.240640000000       8.406740000000      -0.025853258576      -0.027240906869      -0.042986356339
53 1       5.807100000000       1.502480000000       8.406740000000       0.025902432562       0.027194056422      -0.043003743963
54 1       5.807100000000       3.240640000000       3.663630000000       0.025905609922      -0.027237926231      -0.043053498104
55 1       5.822600000000       8.422250000000       3.240640000000       0.043130691852      -0.025940279634      -0.027250024540
56 1       5.822600000000       1.063990000000       1.502480000000       0.043101477179       0.025844510107       0.027194239452
57 1       3.663630000000       1.063990000000       6.245590000000      -0.043043064217       0.025817493877       0.027262463627
58 1       3.663630000000       8.422250000000       7.983760000000      -0.043046183403      -0.025938344029      -0.027299099984
59 1       3.679130000000       6.245590000000       5.822600000000      -0.025833759008       0.027268802381       0.043113664996
60 1       3.679130000000       7.983760000000       1.079490000000      -0.025852429115      -0.027295276580       0.043000653148
61 1       5.807100000000       7.983760000000       5.822600000000       0.025885107362      -0.027310473240       0.043104521660
62 1       5.807100000000       6.245590000000       1.079490000000       0.025876532277       0.027267579506       0.043044138686
63 1       5.822600000000       3.679130000000       6.245590000000       0.043113664996      -0.025833759008       0.027268802381
64 1       5.822600000000       5.807100000000       7.983760000000       0.043104521660       0.025885107362      -0.027310473240
65 1       6.245590000000       1.079490000000       5.807100000000       0.027267579506       0.043044138686       0.025876532277
66 1       6.245590000000       8.406740000000       8.422250000000       0.027274381286      -0.043022529333      -0.025910094261
67 1       6.245590000000       5.822600000000       3.679130000000       0.027268802381       0.043113664996      -0.025833759008
68 1       6.245590000000       3.663630000000       1.063990000000       0.027262463627      -0.043043064217       0.025817493877
69 1       7.983760000000       8.406740000000       1.063990000000      -0.027307104675      -0.042966785902       0.025816482832
70 1       7.983760000000       5.822600000000       5.807100000000      -0.027310473240       0.043104521660       0.025885107362
71 1       7.983760000000       3.663630000000       8.422250000000      -0.027299099984      -0.043046183403      -0.025938344029
72 1       7.983760000000       1.079490000000       3.679130000000      -0.027295276580       0.043000653148      -0.025852429115
73 1       8.406740000000       8.422250000000       6.245590000000      -0.043022529333      -0.025910094261       0.027274381286
74 1       8.406740000000       1.063990000000       7.983760000000      -0.042966785902       0.025816482832      -0.027307104675
75 1       8.422250000000       6.245590000000       8.406740000000      -0.025910094261       0.027274381286      -0.043022529333
76 1       8.422250000000       7.983760000000       3.663630000000      -0.025938344029      -0.027299099984      -0.043046183403
77 1       1.063990000000       6.245590000000       3.663630000000       0.025817493877       0.027262463627      -0.043043064217
78 1       1.063990000000       7.983760000000       8.406740000000       0.025816482832      -0.027307104675      -0.042966785902
79 1       1.079490000000       3.679130000000       7.983760000000       0.043000653149      -0.025852429115      -0.027295276580
80 1       1.079490000000       5.807100000000       6.245590000000       0.043044138686       0.025876532277       0.027267579506
