20
Config_type=bulk_beta_phase Weight=1.0 Lattice="12.324999434 0.000000000 -2.999482465 0.000000000 3.141263910 0.000000000 0.000000000 0.000000000 5.985213572" Energy=-170.40227440 Virial="-10.34238 0.00000 -0.30507 0.00000 -11.52863 -0.00000 -0.30507 -0.00000 -11.07470" pbc="T T T" Properties=species:S:1:pos:R:3:forces:R:3
Ga	      1.94440      1.57063      1.40961        -0.014245      0.000016      0.012858
Ga	      4.21810      0.00000      3.07586         0.014242     -0.000011     -0.012855
Ga	      1.10006      0.00000      4.49131        -0.027720     -0.000029     -0.018929
Ga	      5.06244      1.57063     -0.00584         0.027720      0.000031      0.018932
Ga	      8.10690      0.00000     -0.09013        -0.014241     -0.000017      0.012861
Ga	     10.38060      1.57063      1.57612         0.014234      0.000019     -0.012868
Ga	      7.26256      1.57063      2.99157        -0.027722      0.000031     -0.018933
Ga	     11.22494      0.00000     -1.50558         0.027724     -0.000027      0.018935
O	      6.09848      0.00000      0.05880        -0.007733     -0.000033     -0.003348
O	      0.06402      1.57063      4.42667         0.007734      0.000033      0.003354
O	      2.15324      0.00000      2.87306        -0.002248     -0.000008      0.006334
O	      4.00926      1.57063      1.61241         0.002248      0.000006     -0.006335
O	      4.19976      1.57063      4.30281         0.023159      0.000014     -0.011710
O	      1.96274      0.00000      0.18266        -0.023156     -0.000016      0.011716
O	     12.26098      1.57063     -1.44094        -0.007730      0.000030     -0.003353
O	      6.22652      0.00000      2.92693         0.007732     -0.000035      0.003346
O	      8.31574      1.57063      1.37332        -0.002249      0.000007      0.006334
O	     10.17176      0.00000      0.11267         0.002250     -0.000010     -0.006337
O	     10.36226      0.00000      2.80307         0.023159     -0.000018     -0.011711
O	      8.12524      1.57063     -1.31708        -0.023157      0.000016      0.011708
