160
Config_type=bulk_gamma_phase Weight=1.0 Lattice="8.302582237 0.000000000 0.000000000 0.000000000 8.302582237 0.000000000 0.000000000 0.000000000 24.907746711" Energy=-1359.93496520 Virial="42.94127 0.44958 -19.89159 0.44958 42.36837 -2.04614 -19.89159 -2.04614 47.70357" pbc="T T T" Properties=species:S:1:pos:R:3:forces:R:3
Ga	      1.20458      5.15856     21.89454         0.012391     -0.018006      0.000837
Ga	      5.15440      0.83714     13.55850        -0.002719      0.002699      0.003329
Ga	      7.09109      7.33925      7.32815        -0.007994      0.004771     -0.019218
Ga	      7.22688      7.06843     15.64081        -0.016581      0.002765      0.005804
Ga	      5.17781      5.21003      0.97354        -0.021547     -0.009956      0.011840
Ga	      3.00342      3.17745      7.15321         0.005014      0.002396      0.026004
Ga	      0.94019      1.04077      1.09074        -0.018865      0.005080     -0.014466
Ga	      5.12449      1.02807      5.19824         0.013564     -0.012301     -0.018043
Ga	      3.15305      2.93510     15.51146        -0.003296     -0.003174     -0.012519
Ga	      5.33963      1.10528     21.72872         0.010631     -0.011420     -0.010993
Ga	      3.10541      7.18636     11.41891         0.010706     -0.002998     -0.020458
Ga	      7.35512      3.16707     19.64521        -0.002412      0.016847     -0.016159
Ga	      1.01000      5.05108     13.37541         0.012619      0.001609      0.002221
Ga	      7.26726      3.19128      3.17697         0.009507     -0.010516      0.029399
Ga	      5.05522      5.29580      9.28835         0.006948     -0.017145      0.000915
Ga	      7.29232      7.37242     23.90095         0.030578     -0.005575     -0.005779
Ga	      3.16912      7.39035     19.77186        -0.007109      0.024137      0.014762
Ga	      0.90259      1.06954      9.43696         0.001842     -0.000757     -0.015597
Ga	      3.20134      7.36051      3.05705         0.011792      0.011732      0.008614
Ga	      1.16464      1.03046     17.67109         0.008997     -0.015473      0.002836
Ga	      3.88990      0.19279      8.31562        -0.006242      0.015781      0.011177
Ga	      6.08964      6.05724     12.42896        -0.012844      0.005857      0.039438
Ga	      2.14368      2.12655     20.77156        -0.006053     -0.008569      0.011639
Ga	      6.34908      6.23733     20.71624         0.009628      0.008932      0.005272
Ga	      1.94211      6.33995      8.21121        -0.007812      0.013345     -0.013243
Ga	      8.25806      2.04392      6.18822         0.027670     -0.017819      0.019347
Ga	      1.97775      2.07481      4.19032        -0.027951     -0.008633     -0.003714
Ga	      0.04244      1.99519     14.48430         0.001010      0.000059     -0.017218
Ga	      0.16973      6.15062     18.63841        -0.000510     -0.000076      0.008748
Ga	      6.21940      0.05719      2.08635        -0.015369     -0.026167      0.015704
Ga	      6.04689      0.07563     10.44119        -0.015048      0.012276      0.002287
Ga	      4.14526      2.18022     18.63239        -0.011463     -0.005151      0.024886
Ga	      6.35704      8.25739     18.68213         0.011609      0.003782     -0.005083
Ga	      6.29910      2.04424     16.59179        -0.006004     -0.002295     -0.000274
Ga	      0.15912      2.05454     22.88584        -0.011578     -0.005275     -0.002805
Ga	      2.01311      8.08696     14.62685         0.006829     -0.001720     -0.005440
Ga	      3.98203      5.97314     14.53829         0.010430     -0.014662      0.008073
Ga	      6.20623      4.17248      6.24460         0.001886      0.002656     -0.017034
Ga	      4.16908      6.33301     22.87212         0.020045      0.020720     -0.005668
Ga	      0.09923      4.15305     16.60669         0.006431     -0.013576     -0.001729
Ga	      2.07120      4.20410      2.07384        -0.015425     -0.017123      0.004735
Ga	      4.10967      4.26469     20.70537         0.006504      0.005542      0.020543
Ga	      4.11397      8.10720     16.66942        -0.015101     -0.009300     -0.010032
Ga	      6.23958      4.20724     22.79547        -0.002263     -0.016215     -0.020841
Ga	      8.23881      6.14697     10.36297         0.021312      0.003787     -0.003231
Ga	      8.28483      8.24070     12.47424        -0.008725      0.019582     -0.031974
Ga	      0.04223      4.23665      0.03179        -0.004001     -0.003368     -0.006572
Ga	      6.16966      4.02954     14.50384         0.004277      0.011077     -0.004011
Ga	      4.09299      4.16083      4.12324         0.019159      0.011986     -0.033075
Ga	      2.11162      2.01874     12.37829         0.005339      0.002739     -0.005096
Ga	      2.07782      4.07150     10.39125         0.000115      0.012696     -0.010768
Ga	      0.03974      6.36903      2.17981        -0.008618     -0.000430     -0.025766
Ga	      0.20178      8.26345     20.85968         0.000311      0.003466     -0.020039
Ga	      4.08707      2.03008      1.96546         0.019712      0.016672     -0.010675
Ga	      6.14873      2.04293     24.86326         0.004590     -0.013464      0.002972
Ga	      8.27206      4.11020      8.30051         0.003512     -0.001698     -0.003508
Ga	      6.03701      2.15004      8.40560        -0.017832     -0.006805     -0.011833
Ga	      3.98226      6.36869      6.16561         0.003890      0.021014      0.010751
Ga	      6.28414      6.36222      4.20264        -0.009985      0.004216     -0.013485
Ga	      2.16021      6.33060     24.87112        -0.008570      0.025784      0.008963
Ga	      5.12806      3.09691     11.45810         0.019746     -0.029388      0.004243
Ga	      3.14477      1.07310     23.84861         0.007316      0.027293     -0.006386
Ga	      3.15204      5.12347     17.63897         0.001904     -0.005878      0.006843
Ga	      0.97898      7.32553      5.18099         0.005216     -0.013721      0.001744
O	      2.10014      2.13196      2.10632         0.001963     -0.001518      0.002091
O	      6.08710      6.18184      6.19221        -0.000963     -0.002411     -0.003340
O	      4.19140      8.25024      6.36426        -0.009626      0.006445      0.004769
O	      4.26738      0.12698      2.04288        -0.003422      0.004096      0.006751
O	      8.19079      6.27235      4.09361        -0.007706     -0.006894     -0.004195
O	      0.02369      2.13491      4.22886         0.003323     -0.000829     -0.002431
O	      6.15434      4.13991      8.27232        -0.014123      0.004991     -0.004807
O	      1.92015      4.38353      0.20347        -0.000206      0.014109      0.002312
O	      8.29817      4.30872      2.05234         0.002765      0.001283     -0.009423
O	      8.07717      3.99823      6.43221        -0.015567     -0.014887      0.003736
O	      4.23989      2.12281      0.04508         0.003408      0.004998      0.013936
O	      3.97998      6.33694      8.17370        -0.002818     -0.007493     -0.002121
O	      2.09577      0.08144      4.13094        -0.004883     -0.014149     -0.003322
O	      6.10615      8.25564      4.05662        -0.016630     -0.000548      0.013350
O	      2.07304      6.30185      6.28821        -0.000111      0.001250      0.003715
O	      6.16681      2.11067      2.01299         0.004245     -0.000782      0.003483
O	      4.14228      4.09187      2.09532        -0.000455      0.008531      0.003848
O	      4.18634      4.29155      6.12531        -0.009048      0.005357      0.007707
O	      8.10119      2.08418      8.27842         0.008715      0.001927     -0.007179
O	      0.04651      6.24701      0.09273        -0.002720      0.003992     -0.009723
O	      8.15972      0.06648      6.24419         0.000385     -0.016180     -0.010235
O	      8.17152      8.27669      2.10638         0.003657     -0.007419     -0.000446
O	      4.20408      6.18145      4.18708        -0.008499      0.001567      0.008118
O	      4.08467      2.15149      4.06668        -0.009941     -0.002998      0.001949
O	      6.19600      2.15078      6.29977         0.000209     -0.012089     -0.001289
O	      2.03553      6.27302      2.04144         0.006631      0.000125      0.000314
O	      2.21642      4.02259      3.94274         0.001143     -0.005478     -0.000213
O	      6.10365      4.28047      4.22981        -0.003564      0.003469     -0.001141
O	      6.31283      0.14716      0.11193         0.009548      0.015814     -0.003780
O	      2.00177      8.25733      8.42542        -0.004956     -0.002334     -0.000257
O	      6.26827      6.29584      2.13884        -0.008369      0.002055     -0.004399
O	      1.90959      2.11943      6.12444        -0.003170      0.003237      0.005754
O	      2.02451      2.12376     10.43932        -0.011416     -0.008976      0.001931
O	      6.14515      6.06983     14.45799         0.010744      0.001108      0.000773
O	      4.07026      8.10947     14.66630        -0.000941      0.006573      0.006814
O	      4.16290      8.15698     10.25700         0.006066      0.005266     -0.006655
O	      8.16231      6.23255     12.36867        -0.006075     -0.001174      0.002413
O	      0.15342      1.80838     12.61843         0.012847     -0.010152      0.008091
O	      6.46807      3.90382     16.39103         0.012398     -0.009282     -0.000933
O	      2.00435      4.27763      8.32063         0.009351     -0.004936      0.002568
O	      0.11192      4.27856     10.16896         0.003059      0.011132     -0.009336
O	      8.29719      3.98377     14.54924         0.006195     -0.001226      0.000061
O	      4.11686      2.08576      8.17807        -0.010840      0.006967     -0.004345
O	      4.12554      6.21541     16.49131         0.002094     -0.000205     -0.008368
O	      2.00299      8.25695     12.52088        -0.003314     -0.010017      0.005021
O	      6.27291      8.13638     12.41358        -0.004295      0.001429      0.000022
O	      2.07543      6.18522     14.40228         0.001647     -0.024441     -0.009476
O	      6.10583      1.99006     10.32048        -0.004071      0.001955     -0.002932
O	      4.06661      4.20410     10.38475         0.009546      0.004344      0.002899
O	      4.23655      4.08072     14.58075         0.000199     -0.003967      0.000209
O	      0.02254      2.01933     16.50605         0.012096     -0.000138      0.003599
O	      8.24924      6.22736      8.33331        -0.003033      0.002637      0.000808
O	      0.02763      8.19781     14.52970        -0.003399     -0.005095      0.000455
O	      8.11892      8.16974     10.46888         0.005771      0.009627     -0.008937
O	      4.20856      6.27175     12.59326        -0.002764     -0.006913      0.005576
O	      4.10735      1.92669     12.49867         0.006034     -0.003269      0.001378
O	      6.31326      1.95230     14.56152        -0.005295     -0.003628      0.011400
O	      1.96676      6.14757     10.30515         0.001961      0.002791      0.000766
O	      2.05582      3.97383     12.33173        -0.011848     -0.004278      0.006095
O	      6.19280      4.15202     12.56365        -0.005264      0.004390     -0.004672
O	      6.04437      0.10739      8.43571         0.007684     -0.007775     -0.003287
O	      2.20370      0.02570     16.52989        -0.009738      0.011362      0.006121
O	      6.23180      6.27172     10.42450        -0.005905     -0.001616      0.004220
O	      2.06359      1.85085     14.44755         0.002718     -0.000930      0.009054
O	      2.24773      2.00530     18.79620         0.004590     -0.002411     -0.001950
O	      6.27643      6.24798     22.74151         0.004403      0.006660      0.002232
O	      4.28808      0.02845     22.79438        -0.011677      0.022873      0.012495
O	      4.33409      0.07524     18.63011        -0.000804     -0.011900     -0.000997
O	      0.10099      6.28100     20.77058         0.008068      0.000986     -0.000245
O	      0.10171      2.05548     20.81919        -0.007348     -0.003484     -0.000352
O	      6.33799      4.12422     24.82116         0.000244      0.004963      0.009435
O	      2.08504      4.00108     16.58420         0.009392     -0.005678      0.004552
O	      0.08979      4.20006     18.55881        -0.010645      0.007605      0.010946
O	      8.26039      4.11505     22.92339        -0.007985     -0.007497     -0.009214
O	      4.29743      1.91451     16.66610        -0.003941      0.003080     -0.006443
O	      4.11972      6.26340     24.82157        -0.001162     -0.003657      0.001910
O	      2.08953      0.14879     20.78545         0.000147     -0.001464     -0.003191
O	      6.42865      0.00129     20.68614         0.005064      0.003223      0.011584
O	      2.21928      6.28557     22.93559        -0.005471      0.003411     -0.004512
O	      6.24237      1.97610     18.60671         0.000618      0.004427      0.006639
O	      4.21442      4.08952     18.77654         0.013053     -0.019806     -0.005047
O	      4.38554      4.40133     22.59928         0.007389      0.012801      0.000788
O	      8.23288      2.21988     24.87055         0.015069      0.006348      0.001507
O	      0.06305      6.09363     16.68429        -0.005539     -0.007591      0.001765
O	      8.24888      0.14981     22.75403        -0.010828      0.005170     -0.000443
O	      0.06102      8.26353     18.77161         0.004559      0.000720     -0.003889
O	      4.32184      6.29275     20.78292        -0.000835      0.004739      0.007378
O	      4.21382      2.18086     20.66126        -0.000120     -0.005670      0.007526
O	      6.36178      2.21707     22.87833         0.004146      0.014279      0.010517
O	      2.13648      6.26387     18.71875         0.007191     -0.004153     -0.002839
O	      2.19565      4.07334     20.79560         0.005940      0.008713      0.003897
O	      6.29623      4.24612     20.77697         0.004099     -0.003308      0.009474
O	      6.19416      0.00955     16.67370        -0.010401      0.002198     -0.003423
O	      2.04888      0.01521      0.02026        -0.009641      0.013567      0.008960
O	      6.53105      6.38319     18.84987         0.005077     -0.000430      0.006025
O	      2.04979      2.09411     22.74760        -0.015195      0.009839     -0.001141
