ITEM: TIMESTEP
0
ITEM: NUMBER OF ATOMS
30
ITEM: BOX BOUNDS xy xz yz pp pp pp
-2.5065392129999999e+00 5.0130784459999997e+00 -2.5065392129999999e+00
0.0000000000000000e+00 4.3414536989999997e+00 0.0000000000000000e+00
0.0000000000000000e+00 1.3495566058000000e+01 0.0000000000000000e+00
ITEM: ATOMS id type x y z fx fy fz
1 2       0.000000000000       0.000000000000       1.945240000000       0.000036077920      -0.000018478079      -0.010866612630
2 2       0.000000006667       2.894300000000       0.304020000000       0.000027091618       0.000025172282       0.010915645956
3 2       2.506540003333       1.447150000000       2.553280000000      -0.000034368039       0.000032875331       0.010814586958
4 2       0.000000006667       2.894300000000       4.194510000000      -0.000020492367       0.000060673298      -0.010889602211
5 2       2.506540003333       1.447150000000       6.443760000000      -0.000030673544       0.000005185845      -0.010784700934
6 2       0.000000000000       0.000000000000       4.802540000000      -0.000034173422       0.000003382318       0.010906491472
7 2       0.000000006667       2.894300000000       7.051810000000      -0.000017044327       0.000031523927       0.010815313317
8 2       0.000000000000       0.000000000000       8.693020000000      -0.000011475460      -0.000022897896      -0.010836078219
9 2       0.000000006667       2.894300000000      10.942290000000       0.000000116339       0.000047106854      -0.010917550430
10 2       2.506540003333       1.447150000000       9.301060000000      -0.000008197125       0.000043981267       0.010841561783
11 2       0.000000000000       0.000000000000      11.550320000000      -0.000029757716      -0.000004885375       0.010870666553
12 2       2.506540003333       1.447150000000      13.191540000000      -0.000036820044      -0.000000141519      -0.010735474161
13 1       4.253580003030       1.315490000000       3.373890000000       0.012564020198      -0.021712601876       0.000072731534
14 1       1.518990000000       0.000000000000       3.373890000000      -0.025008370745      -0.000022450990       0.000081747530
15 1       1.747040006970       3.025970000000       3.373890000000       0.012525285287       0.021654654023       0.000043377667
16 1       3.266040000303       0.131660000000       1.124630000000      -0.012574103893       0.021770375459      -0.000004298642
17 1       3.266040006363       2.762640000000       1.124630000000      -0.012600256084      -0.021748093875       0.000029988690
18 1       0.987550003333       1.447150000000       1.124630000000       0.025038804323      -0.000001375240       0.000014809533
19 1       1.747040006363       2.762640000000       7.872410000000       0.012594176602      -0.021734666210       0.000081769426
20 1       4.025530003333       1.447150000000       7.872410000000      -0.025053780031      -0.000030838526       0.000063005558
21 1       1.747040000303       0.131660000000       7.872410000000       0.012523216308       0.021791090081       0.000055490460
22 1       0.759500003637       1.578820000000       5.623160000000      -0.012671087117       0.021596200294      -0.000159295627
23 1       0.759490009697       4.209790000000       5.623160000000      -0.012394513059      -0.021737119302      -0.000162205399
24 1      -1.518999993333       2.894300000000       5.623160000000       0.025133203143       0.000091990042      -0.000135146452
25 1      -0.759499990303       4.209790000000      12.370940000000       0.012523863873      -0.021713073227      -0.000076510557
26 1       1.518990006667       2.894300000000      12.370940000000      -0.025010428765       0.000094295875      -0.000116610436
27 1      -0.759499996363       1.578820000000      12.370940000000       0.012615306572       0.021582687287      -0.000138860729
28 1      -1.747039993030       3.025970000000      10.121670000000      -0.012555696385       0.021646728169       0.000046406316
29 1       0.759500003030       1.315490000000      10.121670000000      -0.012614015217      -0.021706273589       0.000079147332
30 1       3.494080000000       0.000000000000      10.121670000000       0.025124091155      -0.000025026648       0.000090206342
