ITEM: TIMESTEP
0
ITEM: NUMBER OF ATOMS
20
ITEM: BOX BOUNDS xy xz yz pp pp pp
-1.3986040388759999e+00 1.2535209795366001e+01 0.0000000000000000e+00
0.0000000000000000e+00 3.1042352590000002e+00 -1.3986040388759999e+00
0.0000000000000000e+00 5.7469227399280003e+00 0.0000000000000000e+00
ITEM: ATOMS id type v_vir_xx v_vir_yy v_vir_zz v_vir_xy v_vir_xz v_vir_yz
1 2       0.000000000000       0.000000000000       0.000000000000       0.000000000000       0.000000000000       0.000000000000
2 2       0.000000000000       0.000000000000       0.000000000000       0.000000000000       0.000000000000       0.000000000000
3 2       0.000000000000       0.000000000000       0.000000000000       0.000000000000       0.000000000000       0.000000000000
4 2       0.000000000000       0.000000000000       0.000000000000       0.000000000000       0.000000000000       0.000000000000
5 2       0.000000000000       0.000000000000       0.000000000000       0.000000000000       0.000000000000       0.000000000000
6 2       0.000000000000       0.000000000000       0.000000000000       0.000000000000       0.000000000000       0.000000000000
7 2       0.000000000000       0.000000000000       0.000000000000       0.000000000000       0.000000000000       0.000000000000
8 2       0.000000000000       0.000000000000       0.000000000000       0.000000000000       0.000000000000       0.000000000000
9 1       0.000000000000       0.000000000000       0.000000000000       0.000000000000       0.000000000000       0.000000000000
10 1       0.000000000000       0.000000000000       0.000000000000       0.000000000000       0.000000000000       0.000000000000
11 1       0.000000000000       0.000000000000       0.000000000000       0.000000000000       0.000000000000       0.000000000000
12 1       0.000000000000       0.000000000000       0.000000000000       0.000000000000       0.000000000000       0.000000000000
13 1       0.000000000000       0.000000000000       0.000000000000       0.000000000000       0.000000000000       0.000000000000
14 1       0.000000000000       0.000000000000       0.000000000000       0.000000000000       0.000000000000       0.000000000000
15 1       0.000000000000       0.000000000000       0.000000000000       0.000000000000       0.000000000000       0.000000000000
16 1       0.000000000000       0.000000000000       0.000000000000       0.000000000000       0.000000000000       0.000000000000
17 1       0.000000000000       0.000000000000       0.000000000000       0.000000000000       0.000000000000       0.000000000000
18 1       0.000000000000       0.000000000000       0.000000000000       0.000000000000       0.000000000000       0.000000000000
19 1       0.000000000000       0.000000000000       0.000000000000       0.000000000000       0.000000000000       0.000000000000
20 1       0.000000000000       0.000000000000       0.000000000000       0.000000000000       0.000000000000       0.000000000000
