ITEM: TIMESTEP
0
ITEM: NUMBER OF ATOMS
20
ITEM: BOX BOUNDS xy xz yz pp pp pp
-1.3986040388759999e+00 1.2535209795366001e+01 0.0000000000000000e+00
0.0000000000000000e+00 3.1042352590000002e+00 -1.3986040388759999e+00
0.0000000000000000e+00 5.7469227399280003e+00 0.0000000000000000e+00
ITEM: ATOMS id type x y z fx fy fz
1 2       1.545694245122       1.552120000000       1.802478772856      -0.139575908010      -0.000032757299      -0.165685107108
2 2       3.323308875027       0.000000000000       3.944446161018       0.139535865122       0.000032757098       0.165567725365
3 2       0.012789355796       0.000000000000       4.565953451151      -0.018948013181       0.000032251683      -0.002293921695
4 2       4.856216128993       1.552120000000       1.180961766320       0.018890184027      -0.000032251618       0.002419831684
5 2       7.813291461448       0.000000000000       1.802479532022      -0.139345296551       0.000032757240      -0.165625989893
6 2       9.590915807756       1.552120000000       3.944449284823       0.139467855375      -0.000032757066       0.165532030854
7 2       6.280396288525       1.552120000000       4.565956574956      -0.018902592452      -0.000032251659      -0.002295037212
8 2      11.123823061722       0.000000000000       1.180964890125       0.018791645612       0.000032252673       0.002401953874
9 1       5.854701989164       0.000000000000       1.474245105496       0.052926226570       0.000039923815       0.060136756847
10 1      -0.985698869015       1.552120000000       4.272679828377      -0.053005455696      -0.000039923893      -0.060171919698
11 1       1.388998924765       0.000000000000       3.246806738166      -0.042472891656       0.000014005699       0.040978338360
12 1       3.479996843621       1.552120000000       2.500106114665       0.042547894918      -0.000014005527      -0.040886222454
13 1       2.985702835561       1.552120000000       5.119642770831      -0.012897180027      -0.000032378713      -0.025187173639
14 1       1.883290568185       0.000000000000       0.627279798403       0.012918987532       0.000032378859       0.025105830366
15 1      12.122299205490       1.552120000000       1.474245864662       0.053191650689      -0.000039924897       0.060195943960
16 1       5.281910428353       0.000000000000       4.272673235780      -0.053113791623       0.000039923785      -0.060157758414
17 1       7.656605857493       1.552120000000       3.246809861972      -0.042502329906      -0.000014005697       0.040966545771
18 1       9.747603776350       0.000000000000       2.500109238470       0.042518213735       0.000014005576      -0.040880391287
19 1       9.253309768290       0.000000000000       5.119645894636      -0.012911881044       0.000032378807      -0.025202791654
20 1       8.150897500914       1.552120000000       0.627282922209       0.012886816567      -0.000032378868       0.025081355975
