160
Config_type=bulk_gamma_phase Weight=1.0 Lattice="8.379242194 0.000000000 0.000000000 0.000000000 8.379242194 0.000000000 0.000000000 0.000000000 25.137726582" Energy=-1360.63883520 Virial="-3.41837 0.25474 -19.78238 0.25474 -4.03517 -2.20045 -19.78238 -2.20045 0.27138" pbc="T T T" Properties=species:S:1:pos:R:3:forces:R:3
Ga	      1.21560      5.20200     22.10581         0.006267      0.005104     -0.017896
Ga	      5.20440      0.84630     13.68344         0.000783      0.001656     -0.004303
Ga	      7.16124      7.40828      7.39525        -0.002900      0.002349     -0.023770
Ga	      7.29252      7.13863     15.78087         0.000342     -0.003604      0.010332
Ga	      5.22464      5.25449      0.98341         0.021160     -0.007843      0.004505
Ga	      3.03175      3.20444      7.21491         0.007734      0.004534      0.015517
Ga	      0.95303      1.04914      1.09011        -0.020599     -0.005822     -0.006700
Ga	      5.17340      1.03309      5.24730         0.007063     -0.014243     -0.021827
Ga	      3.18342      2.96748     15.66241        -0.004478     -0.008964     -0.012684
Ga	      5.38788      1.11757     21.92787         0.010688     -0.002535      0.004992
Ga	      3.13930      7.25579     11.52420        -0.000164     -0.000253     -0.012205
Ga	      7.42703      3.19682     19.82602        -0.004769      0.015314     -0.004446
Ga	      1.01907      5.10166     13.49583         0.009561     -0.022158      0.002544
Ga	      7.33134      3.22306      3.20607         0.003359      0.004386      0.016713
Ga	      5.10218      5.33857      9.37785         0.003839     -0.006192      0.009293
Ga	      7.36341      7.44385     24.11945         0.014838      0.014547      0.008280
Ga	      3.19703      7.45592     19.94343        -0.005869      0.005404      0.020467
Ga	      0.91488      1.07862      9.52765        -0.005190     -0.012938     -0.007756
Ga	      3.22964      7.42668      3.09676        -0.005195      0.031103     -0.006381
Ga	      1.17680      1.03512     17.83408         0.017280     -0.004997     -0.014338
Ga	      3.93225      0.18847      8.39186         0.019927      0.010517      0.005965
Ga	      6.14311      6.11882     12.54598        -0.008069     -0.002605      0.016978
Ga	      2.16411      2.13485     20.96353        -0.010876     -0.003627     -0.006529
Ga	      6.41067      6.29759     20.91702         0.018931      0.025194     -0.007940
Ga	      1.96525      6.40264      8.29114        -0.008060      0.010362     -0.011275
Ga	      8.32969      2.06293      6.24659         0.019741      0.009881      0.001252
Ga	      1.99263      2.09522      4.22353         0.009607     -0.000879      0.013866
Ga	      0.05097      2.01559     14.62609        -0.002497     -0.003149      0.007141
Ga	      0.16449      6.20909     18.80914         0.002733      0.007473      0.002402
Ga	      6.27561      0.05488      2.10452         0.003697     -0.022505      0.009463
Ga	      6.10217      0.07660     10.53731        -0.012199     -0.015650     -0.009954
Ga	      4.17795      2.19911     18.80580        -0.000290      0.005343      0.012658
Ga	      6.41510      8.34122     18.86125         0.012657      0.014225     -0.014255
Ga	      6.35930      2.05179     16.74031        -0.003330      0.006248      0.000805
Ga	      0.15983      2.06966     23.09587        -0.000667      0.009782      0.002226
Ga	      2.03665      8.16558     14.75754         0.010513      0.004313     -0.004356
Ga	      4.01570      6.03005     14.67053         0.007442      0.024660      0.006867
Ga	      6.25250      4.20892      6.31001         0.017158     -0.005599     -0.007843
Ga	      4.21342      6.39163     23.08054         0.000655      0.004868     -0.001919
Ga	      0.09489      4.19049     16.75619         0.016231     -0.014215      0.007552
Ga	      2.08897      4.24164      2.09239        -0.001518     -0.009099      0.007837
Ga	      4.13864      4.30827     20.89454         0.014470      0.009392      0.016631
Ga	      4.14588      8.18679     16.81943         0.005818     -0.006605      0.004105
Ga	      6.30894      4.24508     22.99689        -0.022492     -0.016861     -0.018555
Ga	      8.31500      6.21337     10.45211         0.025149      0.006466      0.004994
Ga	      8.36449      8.30985     12.59207         0.007534      0.015375     -0.010358
Ga	      0.02937      4.27941      0.04115         0.008930      0.008203     -0.009742
Ga	      6.22233      4.06664     14.63605         0.008958     -0.008360     -0.000896
Ga	      4.14074      4.19464      4.15591         0.011870     -0.008388     -0.030059
Ga	      2.12801      2.03824     12.49644         0.003106      0.002921      0.006092
Ga	      2.09645      4.11588     10.48771        -0.003964     -0.007420      0.003572
Ga	      0.04165      6.43749      2.19735        -0.013066     -0.005083     -0.018486
Ga	      0.20350      8.33679     21.05096        -0.001307      0.009746     -0.016788
Ga	      4.12740      2.04093      1.98704         0.001182      0.007153     -0.012002
Ga	      6.20926      2.05491     25.09173         0.000622      0.007999     -0.006266
Ga	      8.35680      4.14265      8.37574        -0.019019      0.008292     -0.005650
Ga	      6.08776      2.16699      8.48105        -0.007021     -0.007250     -0.013784
Ga	      4.02198      6.42784      6.22584         0.016664      0.013401      0.010148
Ga	      6.34168      6.42568      4.24301        -0.013899     -0.011753     -0.003863
Ga	      2.18191      6.38716     25.10375        -0.009028      0.017479      0.006850
Ga	      5.16844      3.12353     11.56562        -0.006600     -0.006335     -0.015228
Ga	      3.17831      1.07739     24.06841        -0.005234     -0.008957      0.009557
Ga	      3.16979      5.17309     17.79877         0.008545      0.003857      0.007504
Ga	      0.98827      7.40019      5.23144         0.000703      0.003796     -0.001828
O	      2.12127      2.14562      2.12035         0.009924     -0.004534      0.005424
O	      6.15160      6.23547      6.24852        -0.001097     -0.002246     -0.003840
O	      4.25199      8.31592      6.42926        -0.000647      0.005133     -0.005571
O	      4.30905      0.12870      2.08615        -0.003506     -0.005927      0.004384
O	      8.26036      6.36344      4.12254        -0.003625     -0.007213     -0.003253
O	      0.02840      2.17915      4.27319         0.005810     -0.006435      0.004719
O	      6.19999      4.16906      8.35016        -0.000266      0.009079      0.001674
O	      1.91390      4.43961      0.22625        -0.000689      0.006529      0.006949
O	      8.36969      4.35418      2.07737         0.001296     -0.007906     -0.006846
O	      8.12779      4.01900      6.51172        -0.012768     -0.001549      0.009565
O	      4.28840      2.11276      0.05575         0.002735     -0.003685      0.002268
O	      4.01781      6.38576      8.24806        -0.000928     -0.007187      0.000761
O	      2.11280      0.08047      4.17194        -0.004399     -0.009186      0.001207
O	      6.15004      8.32597      4.09194        -0.013113     -0.002111      0.004276
O	      2.10025      6.39301      6.35676         0.000461     -0.003302      0.001320
O	      6.22519      2.12389      2.03141         0.000045      0.003720      0.005807
O	      4.18415      4.12521      2.11080        -0.004883      0.000239     -0.002627
O	      4.22302      4.33102      6.17559        -0.003828      0.001518      0.005556
O	      8.17939      2.10295      8.36427        -0.001589      0.004376     -0.012093
O	      0.04465      6.30691      0.08925        -0.000787     -0.004609     -0.006245
O	      8.23833      0.06633      6.30466        -0.003104     -0.008229     -0.008813
O	      8.24419      8.35292      2.10106         0.003752     -0.004645     -0.004659
O	      4.24005      6.23465      4.23406        -0.001227     -0.006711      0.005389
O	      4.12536      2.16961      4.11013        -0.013662      0.002738     -0.004658
O	      6.25546      2.16538      6.35530         0.000959      0.001417     -0.000368
O	      2.05424      6.33576      2.06466         0.007455      0.007596      0.000552
O	      2.25864      4.04369      3.95769        -0.000758     -0.003486     -0.000254
O	      6.16159      4.32276      4.27382        -0.005208     -0.003169     -0.000971
O	      6.38537      0.15229      0.11294         0.004387      0.007023     -0.002215
O	      2.03527      8.33018      8.53021        -0.001697      0.008850      0.003530
O	      6.32460      6.35874      2.15859        -0.003046     -0.007170     -0.005940
O	      1.91625      2.16384      6.16883         0.002667      0.001138      0.005413
O	      2.01961      2.15371     10.54716        -0.007015      0.009128      0.004476
O	      6.20494      6.12375     14.59184         0.004399     -0.008901      0.005757
O	      4.11040      8.19080     14.80393        -0.000060      0.006771      0.001691
O	      4.21306      8.21262     10.34559         0.002482     -0.003715     -0.004856
O	      8.23417      6.28988     12.47519         0.000510      0.000267      0.010356
O	      0.17061      1.80250     12.75987         0.004558      0.005253      0.013636
O	      6.54426      3.91417     16.52095         0.008625     -0.004174     -0.002938
O	      2.02658      4.31542      8.38980        -0.003613     -0.003337      0.000736
O	      0.12951      4.34200     10.24066        -0.011582      0.004404      0.001642
O	      0.00133      4.02108     14.67777         0.000751     -0.010332     -0.008097
O	      4.15570      2.09135      8.22864        -0.003966     -0.003025     -0.006172
O	      4.13140      6.28385     16.63732        -0.009123      0.001365      0.001820
O	      2.02657      8.33652     12.63038        -0.003745     -0.008037      0.004506
O	      6.33326      8.21622     12.52500         0.005082     -0.002094      0.000982
O	      2.10195      6.25164     14.50981         0.001182     -0.014095     -0.002849
O	      6.12993      2.00223     10.40713        -0.004874      0.008117      0.003864
O	      4.10576      4.24081     10.48247         0.003660      0.007704     -0.000847
O	      4.27851      4.13061     14.74226        -0.002907     -0.013713      0.012581
O	      0.02715      2.03362     16.65609         0.000325     -0.000608      0.008858
O	      8.33470      6.29382      8.40884        -0.015142      0.009796     -0.005207
O	      0.03779      8.26524     14.66513        -0.003911     -0.007324      0.003778
O	      8.19331      8.24846     10.57161         0.001477      0.006874     -0.004719
O	      4.25484      6.34943     12.71564         0.002615     -0.001195     -0.004022
O	      4.15017      1.94668     12.61842        -0.001103     -0.001594      0.002382
O	      6.37546      1.96585     14.69490        -0.009844     -0.006305     -0.001747
O	      1.98861      6.20497     10.40561         0.015893     -0.003791     -0.004089
O	      2.05200      4.00601     12.43773        -0.016365      0.002450      0.004935
O	      6.21821      4.19952     12.68746        -0.000654      0.002918      0.000540
O	      6.10958      0.10881      8.51649         0.003201     -0.009751     -0.001978
O	      2.22840      0.04562     16.67178        -0.007063      0.004267      0.000324
O	      6.29242      6.32291     10.52354        -0.002975      0.002397     -0.005035
O	      2.09051      1.87698     14.58244         0.004588     -0.001889      0.001775
O	      2.27228      2.00780     18.97114         0.001264     -0.007887      0.002596
O	      6.33768      6.31010     22.95021        -0.001832      0.008669      0.002661
O	      4.32689      0.03372     23.00023        -0.003392      0.018003      0.010690
O	      4.37419      0.07150     18.79349        -0.007451     -0.009997      0.002679
O	      0.10852      6.34185     20.97321        -0.000739      0.003301     -0.009023
O	      0.10977      2.07498     21.01044        -0.011518      0.001290      0.001578
O	      6.39526      4.16070     25.04735        -0.002175     -0.000935      0.007002
O	      2.10266      4.04067     16.73742         0.004391      0.001086      0.009736
O	      0.06760      4.24740     18.72120        -0.005231      0.000345      0.006559
O	      8.33893      4.14843     23.14359        -0.011089     -0.008291     -0.008689
O	      4.34061      1.94052     16.82669         0.001430     -0.013099     -0.003060
O	      4.15389      6.29662     25.04289        -0.006110     -0.002760      0.004601
O	      2.10033      0.14402     20.95317         0.000671      0.001369     -0.001510
O	      6.48612      0.00999     20.87677        -0.007901     -0.001989      0.002952
O	      2.25228      6.31655     23.15945        -0.003391      0.015051     -0.002048
O	      6.30047      1.99623     18.77436        -0.008876      0.004952      0.003103
O	      4.22075      4.12192     18.95685         0.004061     -0.013770     -0.003524
O	      4.45329      4.46057     22.78542         0.007112      0.000041     -0.006935
O	      8.31249      2.24290     25.09443         0.005510      0.003469      0.002181
O	      0.03200      6.14062     16.84470         0.003281     -0.007246     -0.001057
O	      8.30604      0.15780     22.95407        -0.009200      0.001447     -0.001993
O	      0.05937      8.34167     18.93945         0.004852     -0.001855     -0.000503
O	      4.35827      6.35346     20.96832         0.000410     -0.000821      0.008888
O	      4.25038      2.20085     20.84940         0.004623     -0.006302      0.006664
O	      6.41547      2.24195     23.09119        -0.001050      0.004603      0.002105
O	      2.15199      6.31888     18.88830         0.003807      0.003376      0.002455
O	      2.22046      4.09661     21.02044         0.010438      0.003281      0.005357
O	      6.36982      4.29170     20.96585        -0.008933     -0.009704      0.002156
O	      6.24814      0.00744     16.83159        -0.002533     -0.006063     -0.000157
O	      2.07215      0.01569      0.01607        -0.012845      0.012850      0.011568
O	      6.60690      6.46378     19.05011        -0.004914      0.003627      0.012266
O	      2.06160      2.07848     22.95175        -0.014194     -0.001380      0.000951
