ITEM: TIMESTEP
0
ITEM: NUMBER OF ATOMS
160
ITEM: BOX BOUNDS pp pp pp
0.0000000000000000e+00 8.2767117240000001e+00
0.0000000000000000e+00 8.2767117240000001e+00
0.0000000000000000e+00 2.4830135170999998e+01
ITEM: ATOMS id type c_pe_atom
1 2      -9.153824096643
2 2      -8.110387148333
3 2      -8.178952853287
4 2      -9.036145743834
5 2      -9.100753132282
6 2      -9.168369733604
7 2      -8.252756549566
8 2      -8.500804603190
9 2      -8.259987204390
10 2      -8.123842321434
11 2      -8.358313991113
12 2      -9.132069778032
13 2      -9.163595548808
14 2      -9.067450945080
15 2      -8.169636280559
16 2      -8.619371945249
17 2      -8.272584801066
18 2      -9.102457161998
19 2      -8.259975789660
20 2      -8.567175373374
21 2      -4.584007627317
22 2      -3.818805388313
23 2      -4.642450494758
24 2      -3.054099454670
25 2      -3.741113486130
26 2      -5.388825739757
27 2      -5.375514228163
28 2      -2.965926883588
29 2      -5.478482584281
30 2      -4.307941060617
31 2      -3.885296490559
32 2      -3.915653444730
33 2      -3.468772125477
34 2      -3.383722688800
35 2      -3.709033491215
36 2      -3.226282984384
37 2      -4.780160861040
38 2      -3.410047296561
39 2      -5.364205921714
40 2      -5.407969424300
41 2      -4.381559863725
42 2      -4.748594800573
43 2      -4.040474077118
44 2      -3.599183974563
45 2      -3.360622030335
46 2      -3.344858805269
47 2      -3.584317906742
48 2      -4.694486890874
49 2      -3.617850499598
50 2      -5.220171478849
51 2      -5.378281567090
52 2      -3.569222700461
53 2      -3.181919772080
54 2      -3.604393203851
55 2      -3.593839064204
56 2      -4.336928211825
57 2      -3.779104056871
58 2      -3.910697046953
59 2      -3.632204466624
60 2      -5.409936866980
61 2      -9.194265063522
62 2      -8.979588181229
63 2      -8.955108256786
64 2      -9.064003299002
65 1      -7.803774678608
66 1      -8.002699719776
67 1      -4.192997285731
68 1      -3.884479448820
69 1      -3.372106739768
70 1      -3.794921516704
71 1      -7.772936902112
72 1      -3.707864103641
73 1      -7.726306073933
74 1      -3.645162631675
75 1      -3.422566006194
76 1      -8.457340382790
77 1      -4.648596002317
78 1      -4.367829842055
79 1      -3.403613796523
80 1      -9.005217013303
81 1      -7.696545090142
82 1      -7.751022407896
83 1      -8.023044665726
84 1      -8.313653225401
85 1      -4.148496607082
86 1      -4.004748754912
87 1      -7.732882494519
88 1      -8.345284803304
89 1      -8.367384616359
90 1      -7.878171129637
91 1      -3.701130869889
92 1      -7.395151823450
93 1      -4.339311462182
94 1      -3.604512272982
95 1      -9.119620100798
96 1      -3.694369511857
97 1      -3.752616555671
98 1      -8.435752923342
99 1      -8.407268548845
100 1      -4.152898717652
101 1      -7.478155149686
102 1      -3.890629619279
103 1      -4.321658126792
104 1      -7.937435801391
105 1      -3.730696597422
106 1      -7.760544119971
107 1      -3.678624140340
108 1      -3.792292441193
109 1      -8.290418602477
110 1      -7.630253193490
111 1      -3.707148897480
112 1      -3.396818190221
113 1      -4.348520618602
114 1      -3.668040466480
115 1      -7.992180874922
116 1      -7.814118576582
117 1      -8.143598615413
118 1      -7.791887549980
119 1      -4.290873967827
120 1      -4.577349724861
121 1      -7.982432342681
122 1      -8.448091494684
123 1      -3.977248988711
124 1      -3.352261903724
125 1      -8.325127733681
126 1      -3.868338698545
127 1      -8.126613611808
128 1      -8.235390817955
129 1      -4.425115837069
130 1      -7.912916177692
131 1      -4.430190658429
132 1      -7.897492209645
133 1      -8.170811424375
134 1      -9.094253138087
135 1      -7.469340025037
136 1      -4.665789305254
137 1      -3.623023772109
138 1      -7.490122231910
139 1      -7.990108700984
140 1      -3.669594036498
141 1      -4.059198137181
142 1      -7.933708830506
143 1      -3.834401297474
144 1      -7.701959833146
145 1      -3.224947801450
146 1      -4.333583338514
147 1      -7.868142644140
148 1      -3.768073979739
149 1      -3.780379945494
150 1      -8.252714374741
151 1      -7.866247605491
152 1      -8.478935605257
153 1      -7.652116265914
154 1      -4.381959174731
155 1      -3.559197693720
156 1      -7.543848877185
157 1      -7.616463575489
158 1      -4.578636016862
159 1      -3.840143565544
160 1      -3.819789483023
