ITEM: TIMESTEP
0
ITEM: NUMBER OF ATOMS
160
ITEM: BOX BOUNDS pp pp pp
0.0000000000000000e+00 8.3665628919999993e+00
0.0000000000000000e+00 8.3665628919999993e+00
0.0000000000000000e+00 2.5099688678000000e+01
ITEM: ATOMS id type x y z fx fy fz
1 2       1.212680000000       5.194830000000      22.071800000000      -0.352937837837       0.095352917873      -0.051889553654
2 2       5.195060000000       0.844600000000      13.662080000000       0.017469998585       0.050955393469      -0.203657307498
3 2       7.150220000000       7.396890000000       7.383760000000      -0.039137187647      -0.194883666785      -0.196861478765
4 2       7.280970000000       7.126980000000      15.757650000000      -0.046255423418       0.494922237789       0.118244236235
5 2       5.217400000000       5.246170000000       0.982280000000       0.298172123745      -0.003537023543      -0.113205415466
6 2       3.027340000000       3.200650000000       7.203950000000       0.207917226104      -0.097335939470       0.135426665474
7 2       0.951020000000       1.048140000000       1.090230000000       0.036981600753       0.059730071753      -0.080796916515
8 2       5.165340000000       1.031630000000       5.238630000000      -0.001104380250       0.070375014314      -0.153246152761
9 2       3.179010000000       2.962320000000      15.637110000000      -0.080985850813       0.083480777410      -0.001966889928
10 2       5.379240000000       1.114980000000      21.894800000000       0.041649704056      -0.021099951119       0.226118098089
11 2       3.133760000000       7.244540000000      11.505730000000      -0.058970982058       0.102623180763      -0.109863256961
12 2       7.415560000000       3.192650000000      19.795950000000      -0.127600991324      -0.419346958260       0.050348446496
13 2       1.015940000000       5.093690000000      13.475250000000      -0.027664599187       0.261060422730       0.117148922634
14 2       7.319700000000       3.217810000000       3.201730000000      -0.312886637327      -0.008844378212       0.109680176235
15 2       5.094220000000       5.330880000000       9.362780000000       0.202500502386      -0.041610213967       0.183029224861
16 2       7.351490000000       7.432210000000      24.083780000000       0.039970691945      -0.120672123472      -0.011959877649
17 2       3.193230000000       7.444270000000      19.913920000000       0.035919558552      -0.129653778519      -0.043543855247
18 2       0.913220000000       1.076650000000       9.512090000000       0.078817344315      -0.239193361245      -0.150451510641
19 2       3.225000000000       7.417190000000       3.091490000000      -0.064737910606      -0.060805529576       0.020058365055
20 2       1.175420000000       1.034310000000      17.807120000000      -0.169141615600      -0.097028091986      -0.100140696776
21 2       3.926550000000       0.189400000000       8.378740000000       0.081397465874      -0.017680673791       0.032176532471
22 2       6.134120000000       6.109560000000      12.526470000000       0.322474067947       0.023944783177      -0.181188812146
23 2       2.160890000000       2.132100000000      20.931570000000      -0.010131891675      -0.144148924872       0.044888817020
24 2       6.399580000000       6.288370000000      20.883490000000       0.016643253168       0.055930900003       0.347964531257
25 2       1.962020000000       6.392170000000       8.278290000000      -0.118068759934      -0.164015574859      -0.042351742222
26 2       8.317740000000       2.059870000000       6.237130000000      -0.237609615885      -0.140262665919       0.095835275611
27 2       1.989320000000       2.092530000000       4.217500000000       0.140207030972      -0.072232552405      -0.197605719917
28 2       0.049360000000       2.012280000000      14.603200000000      -0.045121936956      -0.043585459389       0.391111546415
29 2       0.165180000000       6.199220000000      18.780870000000       0.008452524253       0.345496638259       0.272290777554
30 2       6.266950000000       0.055180000000       2.101210000000       0.011965448165      -0.018824049623      -0.050072831864
31 2       6.093250000000       0.075610000000      10.520870000000       0.429800375100      -0.166299865751       0.195363959225
32 2       4.173240000000       2.196020000000      18.777120000000       0.306375984556       0.004567255253      -0.225489508213
33 2       6.405610000000       8.328190000000      18.831630000000      -0.258181879411       0.433704798522      -0.229424494874
34 2       6.349610000000       2.049670000000      16.715290000000      -0.073061653374      -0.503451356433       0.277660779994
35 2       0.159740000000       2.066930000000      23.061220000000      -0.081454005270       0.243745341076       0.117480688137
36 2       2.032990000000       8.152470000000      14.735420000000      -0.136597526921       0.108214247472       0.086655297023
37 2       4.009720000000       6.020850000000      14.648570000000       0.149373014599       0.076507260397       0.102478559109
38 2       6.245270000000       4.203360000000       6.299220000000      -0.318272600669       0.174077188793      -0.290596511358
39 2       4.206370000000       6.382140000000      23.046370000000       0.329283128408       0.376367574419      -0.122193007141
40 2       0.095330000000       4.184720000000      16.731060000000       0.158603665290      -0.311635877081      -0.107077239744
41 2       2.086090000000       4.236100000000       2.090280000000      -0.004372283024      -0.003936038165       0.003146311903
42 2       4.132150000000       4.301190000000      20.863700000000       0.265540286910      -0.017948406432      -0.278472641708
43 2       4.141200000000       8.173900000000      16.793630000000       0.434336523616       0.154790469679       0.178192445435
44 2       6.298150000000       4.238470000000      22.962340000000       0.392466505685      -0.108535369899       0.309769688043
45 2       8.301950000000       6.203160000000      10.436770000000      -0.143904901555       0.282186337827       0.249208134926
46 2       8.351390000000       8.298360000000      12.573170000000      -0.169589066799      -0.186836500701      -0.196030625489
47 2       0.030580000000       4.272410000000       0.040670000000      -0.388839588766      -0.064620975067      -0.314336101511
48 2       6.212560000000       4.059340000000      14.614060000000       0.125508811304       0.036873569916      -0.328189466469
49 2       4.133530000000       4.188390000000       4.150310000000       0.379272375264       0.131287864025       0.238843057785
50 2       2.124970000000       2.034880000000      12.476670000000       0.238255670243      -0.178062350012       0.232027407207
51 2       2.093530000000       4.108650000000      10.472050000000       0.107462318155       0.273502703142      -0.170937895853
52 2       0.041220000000       6.425760000000       2.194480000000       0.059941107017      -0.185831067469      -0.026493911942
53 2       0.203260000000       8.325000000000      21.019060000000      -0.219610017995      -0.081689022549       0.021627745255
54 2       4.121370000000       2.038610000000       1.983800000000      -0.063969526753       0.200523236304       0.018087829960
55 2       6.198860000000       2.053680000000      25.053040000000      -0.004608463703       0.270446003284      -0.170373655082
56 2       8.343620000000       4.137410000000       8.363560000000      -0.044163392884       0.054893624163      -0.021641448156
57 2       6.079210000000       2.164810000000       8.468600000000       0.161331840112       0.113264480117      -0.025712291092
58 2       4.015450000000       6.417600000000       6.215830000000       0.088364489308      -0.403995016166      -0.216873733880
59 2       6.332460000000       6.415380000000       4.236310000000       0.031175178456      -0.352137861481       0.142476577663
60 2       2.179280000000       6.377140000000      25.066250000000      -0.224967837659       0.100790070553       0.178552086017
61 2       5.162810000000       3.119030000000      11.548140000000      -0.244924198121      -0.010053565326       0.061546692848
62 2       3.172640000000       1.075950000000      24.032340000000       0.110206139122      -0.382867587090       0.049227419922
63 2       3.167110000000       5.164570000000      17.772650000000      -0.097023896148      -0.033225212237      -0.029813277247
64 2       0.987330000000       7.388240000000       5.223160000000      -0.035050138654       0.222263357236      -0.038374614310
65 1       2.117840000000       2.143620000000       2.118230000000       0.210936009736       0.158458048837       0.200091792663
66 1       6.141240000000       6.226770000000       6.239360000000       0.084890185517      -0.042335038843      -0.137212682493
67 1       4.241870000000       8.304900000000       6.418310000000       0.055272371839       0.113944365436      -0.091395724651
68 1       4.302740000000       0.128030000000       2.079640000000      -0.020995107028      -0.004069284885       0.048241529145
69 1       8.249440000000       6.349140000000       4.117720000000       0.297343199119      -0.091420212391       0.255867223253
70 1       0.027500000000       2.172340000000       4.265950000000       0.168765161298       0.010940544127       0.219424879159
71 1       6.192740000000       4.164410000000       8.337190000000       0.269943902626      -0.212776523252      -0.130261426058
72 1       1.914050000000       4.430350000000       0.223740000000      -0.004999641457      -0.032705066393       0.066838459367
73 1       8.357110000000       4.346750000000       2.074120000000       0.283701890641       0.068426322862      -0.141936857323
74 1       8.119370000000       4.015550000000       6.499470000000      -0.011551509336      -0.022276669149       0.101674430360
75 1       4.280270000000       2.113690000000       0.054510000000      -0.326907742282       0.123426246033      -0.194467363851
76 1       4.011710000000       6.377240000000       8.235440000000      -0.109751193302       0.074052275110      -0.089053182768
77 1       2.109820000000       0.081680000000       4.165720000000       0.073208534631       0.153557590521      -0.007849939510
78 1       6.143190000000       8.314390000000       4.085680000000      -0.056899627709       0.158580424626       0.032868160803
79 1       2.095740000000       6.378770000000       6.345860000000      -0.239515222197      -0.048957616698      -0.270204861426
80 1       6.215310000000       2.122150000000       2.028260000000      -0.074723105024      -0.134809621953      -0.099200448837
81 1       4.177550000000       4.118980000000       2.108400000000      -0.279092641105      -0.078210724425       0.156424932957
82 1       4.216930000000       4.324660000000       6.166490000000      -0.168911338489      -0.125159437459       0.027554938529
83 1       8.166200000000       2.099700000000       8.350220000000      -0.024605346469       0.272183075756      -0.261101958539
84 1       0.044640000000       6.297040000000       0.090120000000       0.284333851034      -0.112509389887      -0.094027696611
85 1       8.226210000000       0.066910000000       6.295200000000       0.088497082581       0.145579842296      -0.055591131472
86 1       8.232070000000       8.340380000000       2.101390000000       0.033517720288       0.009709061872      -0.051538787182
87 1       4.234540000000       6.226190000000       4.226760000000      -0.144475105184       0.050656220744       0.084367861882
88 1       4.118900000000       2.166620000000       4.102830000000      -0.252836249367       0.044255397608       0.063998607524
89 1       6.245790000000       2.162880000000       6.345560000000       0.236781113075       0.041091441477      -0.004713128435
90 1       2.051510000000       6.325500000000       2.061690000000      -0.198288534159      -0.152369519260      -0.154713455998
91 1       2.252050000000       4.040320000000       3.955440000000       0.024613543928       0.061907420949      -0.041115980334
92 1       6.152110000000       4.316190000000       4.266960000000       0.092312338659       0.031469652217       0.026015859702
93 1       6.372460000000       0.151930000000       0.112500000000       0.057870247938      -0.089358529035      -0.000089451283
94 1       2.030980000000       8.317770000000       8.513740000000       0.129375093788       0.257246926164       0.103223587446
95 1       6.315500000000       6.347850000000       2.155490000000       0.072600163809       0.111288969936       0.128798566674
96 1       1.914990000000       2.157380000000       6.161160000000      -0.030252494310      -0.080003506001       0.078907374552
97 1       2.020110000000       2.148760000000      10.529470000000       0.135786357714       0.048894318036       0.056178525551
98 1       6.194640000000       6.115220000000      14.569550000000      -0.157492322903      -0.212622651234      -0.177355418531
99 1       4.103910000000       8.177150000000      14.780840000000      -0.021776071676      -0.187159920267       0.115710545994
100 1       4.205320000000       8.202840000000      10.330040000000      -0.164423857132       0.006662376129       0.092518025118
101 1       8.221660000000       6.280490000000      12.457160000000       0.037604225311      -0.126912329764      -0.038026221803
102 1       0.167930000000       1.803620000000      12.736970000000      -0.011296924217      -0.014247814744      -0.099323389611
103 1       6.531450000000       3.911720000000      16.498940000000      -0.020141747265       0.071695389743       0.025429988450
104 1       2.023690000000       4.309550000000       8.378350000000      -0.254382042523      -0.000319994143       0.225097190520
105 1       0.127180000000       4.331870000000      10.228860000000      -0.014336800841      -0.017156427387      -0.051086437716
106 1       0.000120000000       4.015000000000      14.656740000000      -0.181636522079      -0.058623951324       0.177974034888
107 1       4.149600000000       2.090720000000       8.219560000000      -0.261304173476      -0.134229666333      -0.142977271679
108 1       4.128990000000       6.272910000000      16.613030000000      -0.008019872668      -0.068163947500       0.301151939615
109 1       2.022920000000       8.323320000000      12.612110000000      -0.034881681088       0.211581791511      -0.104828593193
110 1       6.323210000000       8.202990000000      12.506380000000       0.014203532922       0.121464644609      -0.083261215331
111 1       2.097060000000       6.240610000000      14.491320000000       0.096684852533      -0.325591852228      -0.163661587432
112 1       6.125610000000       1.999910000000      10.392690000000       0.088663711488       0.248275702453       0.224951337682
113 1       4.099300000000       4.234360000000      10.466730000000      -0.166237128183      -0.111901764174       0.131395592130
114 1       4.271430000000       4.122970000000      14.716280000000      -0.032881363371       0.158087853008       0.042078753900
115 1       0.026320000000       2.030810000000      16.631050000000      -0.034562807458       0.237509368129       0.104948595029
116 1       8.320970000000       6.282980000000       8.396380000000       0.195968095454      -0.263607750274       0.143907491638
117 1       0.036070000000       8.254170000000      14.642580000000       0.194876976562       0.131210636217      -0.139137448753
118 1       8.180880000000       8.235770000000      10.554990000000       0.161121635160       0.146177427267       0.005294889414
119 1       4.247140000000       6.337330000000      12.695180000000      -0.096535663164       0.025269407427      -0.000881415002
120 1       4.142970000000       1.944210000000      12.599020000000      -0.160407243168      -0.010721760706      -0.048671972121
121 1       6.364790000000       1.963090000000      14.672400000000       0.157460627686       0.300120140034       0.058294583125
122 1       1.984840000000       6.195730000000      10.388910000000      -0.052669807100      -0.186024394498       0.028997578931
123 1       2.052250000000       4.001020000000      12.420420000000       0.055697151381      -0.015759812847      -0.022264150999
124 1       6.213870000000       4.192290000000      12.667400000000      -0.038400351036      -0.229788510742      -0.262677424431
125 1       6.099190000000       0.108150000000       8.502700000000      -0.091024973720       0.132879185361       0.098945237683
126 1       2.224820000000       0.042200000000      16.648130000000      -0.150902627005       0.016296871925       0.083702309894
127 1       6.282080000000       6.314120000000      10.506640000000       0.054857216093      -0.112148829322       0.164604904007
128 1       2.086630000000       1.872350000000      14.560390000000      -0.275700410516       0.102444048356      -0.250732077581
129 1       2.268370000000       2.007480000000      18.942290000000      -0.051071683045      -0.095776890950       0.043020551905
130 1       6.327680000000       6.299620000000      22.915360000000      -0.211635332395      -0.047617851417       0.065694522241
131 1       4.319770000000       0.032160000000      22.965590000000       0.028899384073      -0.185530809486       0.067849695634
132 1       4.368190000000       0.072280000000      18.766160000000      -0.058228277308      -0.251922770282       0.020848307652
133 1       0.106960000000       6.331950000000      20.939730000000      -0.069202049407       0.117821221130      -0.254766263044
134 1       0.108080000000       2.071570000000      20.979030000000       0.204156838431       0.069039366145       0.115655401688
135 1       6.385430000000       4.154070000000      25.009790000000      -0.110593472240      -0.048448351432      -0.020358339665
136 1       2.099860000000       4.034000000000      16.712120000000      -0.087189409516       0.020580133123       0.052965798143
137 1       0.071090000000       4.239880000000      18.693860000000       0.014037372829       0.187082589189      -0.174527510617
138 1       8.325790000000       4.142650000000      23.107900000000       0.114000654590       0.077528048189       0.002395424134
139 1       4.334120000000       1.936240000000      16.800030000000      -0.009377855602       0.231247515871      -0.039284769432
140 1       4.148990000000       6.290730000000      25.006690000000      -0.193846543921      -0.037268845390      -0.172757962246
141 1       2.098820000000       0.144080000000      20.924400000000       0.048470986121      -0.002379201046      -0.028990294590
142 1       6.476230000000       0.008550000000      20.845480000000       0.003050327556      -0.298618307184      -0.154733233049
143 1       2.247100000000       6.310940000000      23.123070000000      -0.038661226553       0.048756345076      -0.034812559514
144 1       6.290930000000       1.993700000000      18.746860000000      -0.074951919106       0.087179882804      -0.038644495673
145 1       4.219480000000       4.116500000000      18.927670000000       0.017446710301       0.226560923629      -0.351451084395
146 1       4.442400000000       4.450390000000      22.754830000000      -0.083119561818      -0.043205512183       0.031658183502
147 1       8.299130000000       2.238920000000      25.057250000000       0.150099716923      -0.028900067125      -0.083138610993
148 1       0.035980000000       6.132680000000      16.817880000000       0.184015958195      -0.062036868070       0.101817867988
149 1       8.296370000000       0.156160000000      22.920850000000      -0.046123470368      -0.100090409138       0.077647063356
150 1       0.059490000000       8.329520000000      18.911940000000      -0.004500791891      -0.280579654317      -0.111977634762
151 1       4.352350000000       6.343110000000      20.937460000000       0.092633136823      -0.255642241482       0.133660486552
152 1       4.243960000000       2.197050000000      20.818310000000      -0.196908298707       0.228016782389      -0.075232300527
153 1       6.406210000000       2.237390000000      23.055650000000      -0.052630169236       0.018329107578       0.084099265358
154 1       2.149060000000       6.309420000000      18.860250000000      -0.028506615266       0.097857419350       0.041521784374
155 1       2.215080000000       4.092070000000      20.984550000000       0.056380089198      -0.041696506640       0.031926199343
156 1       6.358070000000       4.284440000000      20.934550000000      -0.285284226385       0.086733586375       0.125869133524
157 1       6.239090000000       0.007980000000      16.805140000000       0.075083567887      -0.005594466146       0.065642014278
158 1       2.068490000000       0.014870000000       0.017560000000      -0.069895433154      -0.088745629177      -0.001675105028
159 1       6.594270000000       6.451230000000      19.016730000000      -0.063551017044      -0.046754475286      -0.068434323125
160 1       2.059640000000       2.079610000000      22.917910000000       0.156045709481       0.004684735397       0.156557906570
