ITEM: TIMESTEP
0
ITEM: NUMBER OF ATOMS
160
ITEM: BOX BOUNDS pp pp pp
0.0000000000000000e+00 8.3665628919999993e+00
0.0000000000000000e+00 8.3665628919999993e+00
0.0000000000000000e+00 2.5099688678000000e+01
ITEM: ATOMS id type c_pe_atom
1 2     -10.065853587275
2 2      -9.052969327772
3 2      -9.147434434556
4 2     -10.034525660766
5 2     -10.103696130305
6 2     -10.098334493097
7 2      -9.197052355673
8 2      -9.353511109608
9 2      -9.137089889872
10 2      -9.102361033358
11 2      -9.215428647392
12 2     -10.155761373156
13 2     -10.083066761333
14 2     -10.065648930447
15 2      -9.123415672572
16 2      -9.508295466520
17 2      -9.188015576659
18 2     -10.028380744791
19 2      -9.190911071862
20 2      -9.455840785043
21 2      -5.547266765341
22 2      -4.832815569636
23 2      -5.491582926949
24 2      -4.109495946140
25 2      -4.787639144000
26 2      -6.148818839659
27 2      -6.191392462010
28 2      -4.009255867439
29 2      -6.372234831533
30 2      -5.176752529527
31 2      -4.863558202372
32 2      -5.006243672836
33 2      -4.446194505101
34 2      -4.422488835521
35 2      -4.818590856888
36 2      -4.279731016038
37 2      -5.688194650856
38 2      -4.467769957782
39 2      -6.181743638638
40 2      -6.205212821975
41 2      -5.391578896248
42 2      -5.730521174103
43 2      -4.974606128701
44 2      -4.648193691599
45 2      -4.411574499129
46 2      -4.372754894740
47 2      -4.576458942278
48 2      -5.649483537728
49 2      -4.604913606804
50 2      -5.980880683390
51 2      -6.113219704252
52 2      -4.640891839871
53 2      -4.244895553762
54 2      -4.697790422067
55 2      -4.737895286011
56 2      -5.322203498274
57 2      -4.851021208666
58 2      -4.905910049197
59 2      -4.770671565818
60 2      -6.213352075261
61 2      -9.973255440048
62 2      -9.809841727274
63 2      -9.702376854307
64 2      -9.864347202038
65 1      -7.057903174288
66 1      -7.289540682221
67 1      -3.662319529902
68 1      -3.260970288901
69 1      -2.922338275156
70 1      -3.273548167838
71 1      -7.071663161694
72 1      -3.181735166496
73 1      -7.111805107620
74 1      -3.112265672142
75 1      -2.977149435533
76 1      -7.739998067860
77 1      -4.022930317073
78 1      -3.785767169743
79 1      -3.005691763825
80 1      -8.209068335078
81 1      -7.077407810249
82 1      -7.019950803248
83 1      -7.316043651706
84 1      -7.515011952063
85 1      -3.622828788620
86 1      -3.363008991108
87 1      -7.000884432059
88 1      -7.524357918622
89 1      -7.567023715757
90 1      -7.129303306482
91 1      -3.172911276338
92 1      -6.724940476826
93 1      -3.783065075810
94 1      -3.100176216391
95 1      -8.324604225534
96 1      -3.173466704930
97 1      -3.209749551660
98 1      -7.796261741014
99 1      -7.694448570750
100 1      -3.622492624499
101 1      -6.783166384731
102 1      -3.420844839265
103 1      -3.847096526311
104 1      -7.218365284810
105 1      -3.215933316646
106 1      -7.054026431202
107 1      -3.192616108561
108 1      -3.383212204720
109 1      -7.507574462525
110 1      -6.976183400582
111 1      -3.230862527015
112 1      -2.980561555568
113 1      -3.814900396598
114 1      -3.047240422670
115 1      -7.165154144558
116 1      -7.125860762334
117 1      -7.427442430083
118 1      -7.069550257061
119 1      -3.753296017272
120 1      -4.068567617208
121 1      -7.337605589937
122 1      -7.666126886127
123 1      -3.420454284357
124 1      -2.847993399401
125 1      -7.621347241374
126 1      -3.377010618368
127 1      -7.401788036658
128 1      -7.470051760855
129 1      -3.882572143685
130 1      -7.123804865621
131 1      -3.864237747194
132 1      -7.143251882540
133 1      -7.379880395830
134 1      -8.294820728480
135 1      -6.784748693566
136 1      -4.083942702080
137 1      -3.171638578470
138 1      -6.784497593344
139 1      -7.239484274683
140 1      -3.170313123170
141 1      -3.403385568496
142 1      -7.263426702343
143 1      -3.228064873555
144 1      -7.041053920839
145 1      -2.731649656351
146 1      -3.861430862073
147 1      -7.119442513330
148 1      -3.203654044301
149 1      -3.288144503305
150 1      -7.442947380014
151 1      -7.105432116096
152 1      -7.743697068956
153 1      -6.963126784138
154 1      -3.789259241125
155 1      -2.953734397502
156 1      -6.867712367091
157 1      -6.950408869804
158 1      -3.965834636190
159 1      -3.359745933277
160 1      -3.396767891920
