160
Config_type=bulk_gamma_phase Weight=1.0 Lattice="8.366562892 0.000000000 0.000000000 0.000000000 8.366562892 0.000000000 0.000000000 0.000000000 25.099688678" Energy=-1360.61143520 Virial="4.14132 0.27838 -19.87135 0.27838 3.54907 -2.22961 -19.87135 -2.22961 8.05583" pbc="T T T" Properties=species:S:1:pos:R:3:forces:R:3
Ga	      1.21268      5.19483     22.07180         0.012304      0.007230     -0.021002
Ga	      5.19506      0.84460     13.66208         0.010786     -0.002578     -0.003063
Ga	      7.15022      7.39689      7.38376        -0.002349      0.001346     -0.023348
Ga	      7.28097      7.12698     15.75765         0.003345     -0.003343      0.005265
Ga	      5.21740      5.24617      0.98228         0.012042      0.000876     -0.000688
Ga	      3.02734      3.20065      7.20395         0.004431     -0.000225      0.020792
Ga	      0.95102      1.04814      1.09023        -0.017027     -0.008780     -0.001848
Ga	      5.16534      1.03163      5.23863         0.005807     -0.003003     -0.012063
Ga	      3.17901      2.96232     15.63711        -0.017926     -0.011313     -0.006215
Ga	      5.37924      1.11498     21.89480         0.015391      0.001434      0.002491
Ga	      3.13376      7.24454     11.50573        -0.001142     -0.002157     -0.002832
Ga	      7.41556      3.19265     19.79595        -0.009771      0.007182      0.002901
Ga	      1.01594      5.09369     13.47525         0.022983     -0.023493      0.007058
Ga	      7.31970      3.21781      3.20173         0.010711     -0.002321      0.017493
Ga	      5.09422      5.33088      9.36278         0.003965     -0.005216      0.005472
Ga	      7.35149      7.43221     24.08378         0.019190      0.010495      0.000258
Ga	      3.19323      7.44427     19.91392        -0.014619      0.015990      0.031071
Ga	      0.91322      1.07665      9.51209        -0.006523     -0.007151     -0.002828
Ga	      3.22500      7.41719      3.09149        -0.002457      0.011354     -0.015470
Ga	      1.17542      1.03431     17.80712         0.017054     -0.009796     -0.011659
Ga	      3.92655      0.18940      8.37874         0.009698      0.010025      0.004466
Ga	      6.13412      6.10956     12.52647        -0.011726     -0.007012      0.027528
Ga	      2.16089      2.13210     20.93157        -0.012428      0.003897      0.001609
Ga	      6.39958      6.28837     20.88349         0.025259      0.017013     -0.003226
Ga	      1.96202      6.39217      8.27829        -0.009550      0.010536     -0.009410
Ga	      8.31774      2.05987      6.23713         0.020882      0.006061      0.003659
Ga	      1.98932      2.09253      4.21750         0.009534     -0.002614      0.015458
Ga	      0.04936      2.01228     14.60320         0.003308     -0.005542     -0.000659
Ga	      0.16518      6.19922     18.78087         0.001630      0.011228      0.006367
Ga	      6.26695      0.05518      2.10121        -0.001984     -0.019324      0.004985
Ga	      6.09325      0.07561     10.52087        -0.007726     -0.006641     -0.008658
Ga	      4.17324      2.19602     18.77712        -0.005596     -0.000476      0.014315
Ga	      6.40561      8.32819     18.83163         0.013205      0.009159     -0.011364
Ga	      6.34961      2.04967     16.71529        -0.001474      0.011644      0.002740
Ga	      0.15974      2.06693     23.06122        -0.003880      0.007939      0.000293
Ga	      2.03299      8.15247     14.73542         0.004411      0.007352      0.003983
Ga	      4.00972      6.02085     14.64857         0.007682      0.015048     -0.004164
Ga	      6.24527      4.20336      6.29922         0.011689     -0.009684     -0.008395
Ga	      4.20637      6.38214     23.04637         0.006257     -0.003752     -0.000493
Ga	      0.09533      4.18472     16.73106         0.017418     -0.019150      0.004013
Ga	      2.08609      4.23610      2.09028        -0.002915     -0.014117     -0.001605
Ga	      4.13215      4.30119     20.86370         0.020783      0.004776      0.021810
Ga	      4.14120      8.17390     16.79363        -0.001360     -0.007075      0.009837
Ga	      6.29815      4.23847     22.96234        -0.029479     -0.009678     -0.015950
Ga	      8.30195      6.20316     10.43677         0.029977     -0.000846      0.003127
Ga	      8.35139      8.29836     12.57317         0.004563      0.017904     -0.016079
Ga	      0.03058      4.27241      0.04067         0.008396      0.003471     -0.010961
Ga	      6.21256      4.05934     14.61406         0.016310      0.007377     -0.003602
Ga	      4.13353      4.18839      4.15031         0.009958      0.000116     -0.033598
Ga	      2.12497      2.03488     12.47667         0.009219      0.009017      0.014812
Ga	      2.09353      4.10865     10.47205        -0.000172     -0.003866      0.003624
Ga	      0.04122      6.42576      2.19448        -0.010719      0.000369     -0.021848
Ga	      0.20326      8.32500     21.01906        -0.002482      0.001922     -0.016611
Ga	      4.12137      2.03861      1.98380        -0.001193      0.010738     -0.015684
Ga	      6.19886      2.05368     25.05304         0.004112     -0.002837     -0.000285
Ga	      8.34362      4.13741      8.36356        -0.019505      0.006655     -0.002360
Ga	      6.07921      2.16481      8.46860        -0.001583     -0.012957     -0.020129
Ga	      4.01545      6.41760      6.21583         0.010841      0.017528      0.012064
Ga	      6.33246      6.41538      4.23631        -0.013602     -0.013327     -0.005685
Ga	      2.17928      6.37714     25.06625        -0.013569      0.022664      0.004166
Ga	      5.16281      3.11903     11.54814        -0.008067      0.000221     -0.010859
Ga	      3.17264      1.07595     24.03234        -0.003963     -0.004933      0.006744
Ga	      3.16711      5.16457     17.77265         0.003643      0.001667     -0.002510
Ga	      0.98733      7.38824      5.22316        -0.006297     -0.000806      0.003494
O	      2.11784      2.14362      2.11823         0.007834     -0.006528      0.004628
O	      6.14124      6.22677      6.23936        -0.000095     -0.002263     -0.005324
O	      4.24187      8.30490      6.41831         0.001555      0.006170     -0.005097
O	      4.30274      0.12803      2.07964        -0.004595     -0.001150      0.003460
O	      8.24944      6.34914      4.11772        -0.009209     -0.009853     -0.000628
O	      0.02750      2.17234      4.26595         0.000173     -0.006163      0.003599
O	      6.19274      4.16441      8.33719        -0.004471      0.007667      0.002054
O	      1.91405      4.43035      0.22374         0.002304      0.007540      0.003127
O	      8.35711      4.34675      2.07412         0.004944     -0.005861     -0.008759
O	      8.11937      4.01555      6.49947        -0.010844     -0.003424      0.000565
O	      4.28027      2.11369      0.05451        -0.004059     -0.001218     -0.002036
O	      4.01171      6.37724      8.23544         0.001635     -0.006830      0.001941
O	      2.10982      0.08168      4.16572        -0.002665     -0.009266     -0.000881
O	      6.14319      8.31439      4.08568        -0.011085     -0.000930      0.007191
O	      2.09574      6.37877      6.34586         0.004364     -0.009912     -0.000595
O	      6.21531      2.12215      2.02826         0.003442     -0.000065      0.006186
O	      4.17755      4.11898      2.10840        -0.006961      0.007096     -0.000179
O	      4.21693      4.32466      6.16649        -0.000245      0.003158      0.011169
O	      8.16620      2.09970      8.35022         0.001286      0.002637     -0.010102
O	      0.04464      6.29704      0.09012        -0.001041     -0.007724     -0.002363
O	      8.22621      0.06691      6.29520        -0.002637     -0.014563     -0.012763
O	      8.23207      8.34038      2.10139         0.004676     -0.007757     -0.002860
O	      4.23454      6.22619      4.22676        -0.007036     -0.005511     -0.000269
O	      4.11890      2.16662      4.10283        -0.013418     -0.000247     -0.003958
O	      6.24579      2.16288      6.34556        -0.002546      0.001329      0.000521
O	      2.05151      6.32550      2.06169         0.008862      0.008750      0.003140
O	      2.25205      4.04032      3.95544        -0.000818     -0.000624      0.003095
O	      6.15211      4.31619      4.26696        -0.001966     -0.002138      0.000819
O	      6.37246      0.15193      0.11250         0.005843      0.006792     -0.001381
O	      2.03098      8.31777      8.51374        -0.004805      0.010496      0.001141
O	      6.31550      6.34785      2.15549        -0.004272     -0.002791     -0.005635
O	      1.91499      2.15738      6.16116         0.002194      0.001248      0.005579
O	      2.02011      2.14876     10.52947        -0.008657      0.006413      0.001924
O	      6.19464      6.11522     14.56955         0.003499     -0.011882      0.006208
O	      4.10391      8.17715     14.78084        -0.003572      0.007064      0.002567
O	      4.20532      8.20284     10.33004         0.001879      0.000569     -0.002810
O	      8.22166      6.28049     12.45716        -0.000803      0.004310      0.007420
O	      0.16793      1.80362     12.73697         0.003333     -0.000487      0.013989
O	      6.53145      3.91172     16.49894         0.007925     -0.005571      0.002560
O	      2.02369      4.30955      8.37835        -0.003862     -0.005558      0.000981
O	      0.12718      4.33187     10.22886        -0.013330      0.008891     -0.000109
O	      0.00012      4.01500     14.65674        -0.000738     -0.010673     -0.009944
O	      4.14960      2.09072      8.21956        -0.006591     -0.000445     -0.004566
O	      4.12899      6.27291     16.61303        -0.001140     -0.000785     -0.000716
O	      2.02292      8.32332     12.61211        -0.005681     -0.006533      0.000912
O	      6.32321      8.20299     12.50638         0.002611      0.000994     -0.000061
O	      2.09706      6.24061     14.49132         0.000751     -0.013683     -0.002673
O	      6.12561      1.99991     10.39269        -0.001331      0.004643      0.000209
O	      4.09930      4.23436     10.46673         0.008699      0.007732     -0.002112
O	      4.27143      4.12297     14.71628        -0.001366     -0.012270      0.004086
O	      0.02632      2.03081     16.63105         0.003924      0.000186      0.012093
O	      8.32097      6.28298      8.39638        -0.013881      0.008783     -0.005418
O	      0.03607      8.25417     14.64258        -0.004139     -0.008089      0.006447
O	      8.18088      8.23577     10.55499         0.004625      0.005342     -0.010108
O	      4.24714      6.33733     12.69518        -0.000769     -0.001703     -0.004981
O	      4.14297      1.94421     12.59902        -0.002663     -0.000670     -0.001555
O	      6.36479      1.96309     14.67240        -0.010019     -0.003647     -0.001672
O	      1.98484      6.19573     10.38891         0.014211     -0.004654     -0.004510
O	      2.05225      4.00102     12.42042        -0.016376     -0.000893      0.004806
O	      6.21387      4.19229     12.66740        -0.000113      0.000572     -0.003653
O	      6.09919      0.10815      8.50270         0.001061     -0.002887     -0.000684
O	      2.22482      0.04220     16.64813        -0.011898      0.007461      0.001706
O	      6.28208      6.31412     10.50664         0.000022      0.002227     -0.003096
O	      2.08663      1.87235     14.56039         0.001897     -0.000200     -0.000956
O	      2.26837      2.00748     18.94229         0.005163     -0.003203     -0.000711
O	      6.32768      6.29962     22.91536        -0.001241      0.012228      0.007897
O	      4.31977      0.03216     22.96559        -0.004683      0.020787      0.015857
O	      4.36819      0.07228     18.76616        -0.009523     -0.011896      0.000982
O	      0.10696      6.33195     20.93973         0.002190      0.001851     -0.009377
O	      0.10808      2.07157     20.97903        -0.008704      0.001209      0.000639
O	      6.38543      4.15407     25.00979         0.000186     -0.000017      0.007273
O	      2.09986      4.03400     16.71212         0.005349     -0.001431      0.008926
O	      0.07109      4.23988     18.69386        -0.004347      0.001569      0.006269
O	      8.32579      4.14265     23.10790        -0.010320     -0.009695     -0.007911
O	      4.33412      1.93624     16.80003        -0.004787     -0.008733     -0.004067
O	      4.14899      6.29073     25.00669        -0.006665     -0.003379      0.005862
O	      2.09882      0.14408     20.92440         0.001969     -0.001171     -0.003863
O	      6.47623      0.00855     20.84548        -0.005451     -0.001588      0.000652
O	      2.24710      6.31094     23.12307        -0.006787      0.012119     -0.001653
O	      6.29093      1.99370     18.74686        -0.007664     -0.000697     -0.000477
O	      4.21948      4.11650     18.92767         0.005649     -0.010502     -0.004184
O	      4.44240      4.45039     22.75483         0.007567      0.007312     -0.007850
O	      8.29913      2.23892     25.05725         0.008212      0.006086      0.005459
O	      0.03598      6.13268     16.81788         0.008670     -0.004996      0.004671
O	      8.29637      0.15616     22.92085        -0.007600      0.005146      0.000463
O	      0.05949      8.32952     18.91194         0.006502     -0.003517     -0.003039
O	      4.35235      6.34311     20.93746        -0.002530     -0.000124      0.007224
O	      4.24396      2.19705     20.81831         0.003745     -0.001682      0.005536
O	      6.40621      2.23739     23.05565         0.001099      0.006505      0.001285
O	      2.14906      6.30942     18.86025         0.006332     -0.000753     -0.000415
O	      2.21508      4.09207     20.98455         0.013649      0.003280      0.002265
O	      6.35807      4.28444     20.93455        -0.008522     -0.007498     -0.001063
O	      6.23909      0.00798     16.80514        -0.005748     -0.007019      0.002613
O	      2.06849      0.01487      0.01756        -0.011200      0.018020      0.011261
O	      6.59427      6.45123     19.01673        -0.005444     -0.000865      0.009491
O	      2.05964      2.07961     22.91791        -0.014621      0.003813      0.001573
