ITEM: TIMESTEP
0
ITEM: NUMBER OF ATOMS
160
ITEM: BOX BOUNDS pp pp pp
0.0000000000000000e+00 8.4916681310000008e+00
0.0000000000000000e+00 8.4916681310000008e+00
0.0000000000000000e+00 2.5475004391999999e+01
ITEM: ATOMS id type v_vir_xx v_vir_yy v_vir_zz v_vir_xy v_vir_xz v_vir_yz
1 2      -2.586468965645      -0.474970135313      -0.522120160284       0.048455288864      -0.230473164042      -0.168704168953
2 2      -2.558516162552      -1.762014645030      -2.339178288189      -0.313566651271       0.325326059749       0.217656706147
3 2      -1.634577081518      -2.396408469849      -2.137813589369       0.381654670421       0.518272874154       0.015816916440
4 2      -0.164565287824      -2.198961365787      -2.227929924777       0.211211112886      -0.275904201177       0.509564099342
5 2      -2.275751098037      -0.208653395259      -2.011616761564       0.029696231201      -0.113901194583       0.096835003780
6 2      -2.519988609563      -0.481352223110      -1.090826728874       0.250543892855      -0.059151984805      -0.199748609371
7 2      -1.822242521435      -2.689892766018      -0.531254733576      -0.621278097739       0.079749652199      -0.109806371770
8 2      -0.128452403585      -3.077613390384      -2.082863844946       0.077467570063      -0.245928357358      -0.347318572494
9 2      -3.098041153517      -1.947848164146      -0.491439022256      -0.533147741803       0.022827185587      -0.327613707395
10 2      -1.707075889879      -2.488426200020      -2.141089364110       0.367368077375       0.196180853130      -0.263858722786
11 2      -3.090221572253      -0.521823963174      -2.261168656763      -0.008864870726       0.214601403367      -0.032512600802
12 2      -0.045301216172      -2.237983397655      -2.207097650174       0.066223797025       0.434914293496       0.396086016013
13 2      -0.653540396597      -2.570049969874      -1.322071008489      -0.285359938617       0.471902233285      -0.201117306809
14 2      -2.163120991687      -0.231530308384      -2.084713647545       0.055206999634      -0.106658715561       0.068901245147
15 2      -2.484009846658      -1.712957507562      -2.106013401327       0.442393808655       0.145464202972       0.467054714514
16 2       0.173394415474      -2.905241025235      -2.400039677046      -0.175457319844      -0.294287237900      -0.103666375316
17 2      -2.575220373499      -2.005861316590      -0.599643232364       0.520545820710      -0.018048792282       0.090373673084
18 2      -0.490653195814      -2.584145723458      -1.129284506547       0.137994106371      -0.211415040775      -0.230390413864
19 2      -1.831414818378      -2.698485205346      -0.565724322113      -0.606043268285       0.130780002751      -0.114527064376
20 2      -3.012569707257       0.013821313522      -2.438147057932       0.243763154150       0.155581223304       0.450738787587
21 2      -1.408147330998      -1.520308450383       0.633008432771      -0.347290632260       0.044284451694       0.091897048109
22 2      -0.843880046876      -0.930387313593      -2.591556105325      -0.449741961038      -0.614276179746       0.177650184364
23 2      -2.435631435754       0.217478284971       0.420614821656       0.059321799589       0.148261794161       0.488933650180
24 2      -1.342962143498      -2.074144238880      -1.766299742393      -0.517971868323       1.021090384395       0.695609352607
25 2      -2.183116243009      -0.326024132634      -0.784037245096      -0.100619706375       0.122952323179       0.961332359625
26 2      -1.194729749884       0.738864652792      -1.097316427771       0.171821863709       0.044559581346      -0.465241510993
27 2      -1.076740294707       1.117408794011      -1.449098485201      -0.231241473495       0.091971472175       0.205532034325
28 2      -1.791635321393      -1.642406840794      -1.909349597789       0.597089122545       0.831507669029      -0.972772637138
29 2       0.758700463543      -1.085224022317      -0.982212194280       0.004796990485       0.356704294284      -0.282547940500
30 2       0.368358081962      -2.293065770145       0.673535126638       0.479926937608       0.015570559486       0.307242277300
31 2      -0.829525737664      -1.072003503864      -2.664848865465       0.383664516764       0.843133413212       0.103923239890
32 2      -0.691819874274      -0.657405516085      -2.669772442792       0.345047787757      -0.494768356801       0.301158249817
33 2      -1.678321339139      -1.817226258785      -2.201827459450       0.480699588313       0.020970153606       0.608006709085
34 2      -1.868905755652      -1.616348222992      -2.534588953045      -0.506338464749      -0.207687495930       0.756528248935
35 2      -0.956397430850      -0.740321226717      -2.103585030457       0.300522766853       0.242093216881       0.891023751911
36 2      -2.084704492933      -0.636813610715      -0.867459596993       0.825979712625      -0.166183938540       0.301843206546
37 2      -1.222556007903      -1.549681452802       0.622832176066      -0.295994354113       0.564605978568       0.222772487424
38 2      -1.568607061778      -1.902615012956      -2.076363836107       0.363025525529      -0.285992169050      -0.075847090086
39 2      -1.205222001905       1.070924240935      -1.402561133396       0.151448175330      -0.233500338302      -0.419704314950
40 2       1.004616144229      -1.387127151256      -1.569914706128      -0.154862479097      -0.284700768546       0.046518959962
41 2      -2.068996415814      -1.850620016285      -1.299815782791      -0.024436043474      -0.820814591921       0.984073262298
42 2      -0.905541759402      -2.051315483483      -0.010762337511       0.524396317486      -0.716987821008      -0.281942563976
43 2      -0.883271049811      -0.888060357203      -2.707369885102      -0.375551600731       0.844448040762       0.025093674985
44 2      -1.608234035055      -2.079935215187      -2.283942272143       0.502390446827      -0.428067511300      -0.022642646173
45 2      -1.954141907956      -1.666840075744      -2.219974934213       0.427714564566      -0.007769524451      -0.357099800767
46 2      -1.881590923168      -1.774030712569      -1.939818831160      -0.255300663329       0.165027649789      -0.356330419708
47 2      -1.599575901606      -1.828805822329      -1.990169762552      -0.449895228346      -0.490452283982       0.080392942864
48 2      -0.958520182066      -2.204818577303      -0.347727794708      -0.468580591153      -0.883110025418       0.281515409153
49 2      -1.616909068783      -1.837564582005      -2.173919286331      -0.517161039768      -0.529189087590       0.208593366005
50 2       0.645570323672      -1.253924865556      -1.356060400367      -0.172533707708       0.346363661177      -0.077188648419
51 2       0.877251890128      -1.165507359629      -1.385261691795       0.132429682822      -0.380495353917      -0.122403965190
52 2      -1.800377910997      -0.612512630353      -0.552638266056      -0.020814890607       0.251109185624      -0.506201393013
53 2      -0.815993890427      -1.915954534183      -0.488409043459      -0.631085041573       0.052689491596      -0.360133401945
54 2      -1.791035384536      -0.602822472097      -0.472938151491       0.010260762598       0.289880153777      -0.513152384803
55 2      -0.703772310720      -0.636646103132      -2.029604602934      -0.177980562755      -0.044560765433      -0.525648468404
56 2      -1.865662912002      -1.834182597208      -1.197279107248      -0.059284049429      -0.905641860876      -1.013885428986
57 2      -0.249559669711      -2.204681805618      -0.773515157447      -0.108987985878       0.955731734595       0.009945019878
58 2      -1.105810153896      -0.799386720187      -2.601219457086       0.437655067065       0.193542083501       0.815710974706
59 2      -0.633044383606      -0.646641600069      -2.061034119324      -0.195941511709       0.090515221746      -0.490844053840
60 2      -1.021843319848       1.057774619043      -1.414163675095      -0.215834165680       0.152158139512       0.067482474239
61 2       0.798703063665      -1.105469523365      -1.121665853443       0.023844573047       0.002488295565       1.137715829191
62 2      -0.890573554251       0.596291107036      -0.845354195122       0.062195935161       1.117191684102       0.200741317723
63 2       0.562353206471      -0.984621625659      -0.833529625405       0.013539910839      -0.062930906109      -1.226581528753
64 2      -0.976398868264       0.719995518319      -0.930883067530       0.061617818211       1.148913910585       0.057687824470
65 1       2.761343419359       2.341971483138       2.093148487838       0.406838668759       0.120568329009       0.190916376136
66 1       2.130186222237       2.243749813880       2.656843579328       0.472133054501       0.367088449597       0.309941082341
67 1       0.268618732517       1.589772327816       2.381039622602      -0.202049044636      -0.264191483592      -0.595020373454
68 1       1.408173941265       1.658024409863      -0.134324041446       0.391570291144      -0.048434621073       0.014555755532
69 1       1.943082482929       0.413164771352       1.856159718204       0.103868439735       0.422352266668       0.047551430303
70 1       1.952736784276       0.587021767596       1.866505448616      -0.154287324334       0.434933062844      -0.228203633533
71 1       2.070640466571       2.244502966185       1.658738478434      -0.421017851386      -0.333608932945       0.301460366655
72 1       0.887081853458       1.441550170069       0.866842859182      -0.100031175828       0.409682771194      -0.041854177407
73 1       2.259320367307       2.216619591426       1.779268108651       0.400830142043      -0.587552467485      -0.329962528438
74 1       0.720037043728       1.490292599915       1.109778527194       0.226304442878       0.447694706019       0.012214354586
75 1       1.932986096628       0.432311099910       1.843868698086       0.123228359779       0.510700030200       0.070548928689
76 1       2.169514586374       1.832534515698       1.842429612261      -0.652414661489       0.711431058334      -0.816210357974
77 1       1.157996383128       1.994393303702       0.734496028257      -0.263182169771      -0.303311016660       0.131507587700
78 1      -0.021554194851       1.819727615198       1.910555258116       0.082532167378      -0.249754518685       0.409212676422
79 1       1.890343137722       0.471802286225       1.962067267438      -0.088941187961       0.475180055074      -0.154930988957
80 1       2.216951512795       2.065641922642       2.263711879419       0.704222852801       0.775767449539       0.735817186663
81 1       2.268397836540       2.236770982268       1.785537804188       0.418734242512      -0.606219901305      -0.329290294432
82 1       2.335787848678       2.209265836364       1.891139545821       0.239632628556      -0.394123203188      -0.248904679870
83 1       2.757368292113       2.352133077692       2.167759904129      -0.393049256861       0.163354626113      -0.451457062297
84 1       2.167127546229       2.140947355676       2.940664491697      -0.161395482126       0.362694645468      -0.602558904212
85 1       1.001467952651       1.679363370326       0.952764630384       0.138584122658      -0.462923356266      -0.087526003456
86 1       1.502134415278       1.671121909141      -0.030416643931       0.413429963408      -0.053320319797       0.011072200670
87 1       2.369432252251       2.444303421780       2.469344447418      -0.476912033112       0.368474666899      -0.197080435330
88 1       2.187025485671       2.168696175609       2.947666103744      -0.153997827106       0.389940169770      -0.705872264202
89 1       1.813485826667       2.406661741014       2.687197251234       0.136370398471       0.468707726729       0.679588301042
90 1       2.829242842957       2.338167532509       2.134499333202       0.411578094702       0.123737255920       0.197096576798
91 1       0.759076176577       1.341074513409       0.943621479364      -0.142283579794       0.419108679380      -0.046099213413
92 1       2.018042513685       2.213906317640       2.372254601387      -0.231344021207      -0.417606586309       0.445471693270
93 1      -0.168128472647       1.725767120210       1.853454521286       0.142935825322      -0.101347466936       0.359586471656
94 1       1.686121179786       1.818970649824       0.582821143210      -0.377376937425      -0.392780170029      -0.019108251836
95 1       2.180084136947       2.050507518434       2.174950978995       0.707636303385       0.799793657793       0.769498088902
96 1       2.094371620708       0.796024825350       1.696330288165       0.220143400136       0.112074341480       0.028559466923
97 1       0.932822955044       2.012366989542       1.727043543717       0.220310764389       0.230931235441       0.032295393796
98 1       2.066225697044       2.119533123918       2.023372099189       0.399772181084       0.666772588688       0.675290819119
99 1       2.282697232983       1.760636714657       1.846714979050       0.610895238634      -0.734525781815      -0.568382551147
100 1       1.553421380896       0.375868098490       2.468518499603      -0.180154417822      -0.604365961843      -0.404776682814
101 1       2.267939340146       2.397398709220       2.121870593831      -0.343709081846       0.302642549412      -0.538720330293
102 1       1.354546440721       0.621789828678       0.503350953545      -0.255038277787       0.261171762063       0.193785484834
103 1       1.034046725472       0.532953684323       0.986786777328      -0.004175526231      -0.190758590009      -0.283659691276
104 1       2.382813994246       2.709540891511       2.258696999412      -0.319385682167      -0.321768251677       0.097145361183
105 1       1.538551784818       0.624081453221       1.146735195304       0.185310761156       0.043175338110       0.397320155469
106 1       2.088001120298       2.647707728404       2.286632862825       0.416820753070      -0.099591359793      -0.402792249853
107 1       1.936968282419       1.802755364878       0.772264886397      -0.402833051021       0.206895427284      -0.532154476628
108 1       0.465418777194       1.601814301976       2.194564023566       0.142878399792      -0.068780647715      -0.587107855106
109 1       2.394261098030       1.838055578729       2.825311666468      -0.058807830382      -0.405065562359       0.356785620000
110 1       2.202445857123       2.038347717096       2.586746468027      -0.431702350939      -0.069943375649       0.063786495015
111 1       1.560094239763       2.037268638622       0.787886011197       0.369243992527       0.139581102502       0.515343619688
112 1       0.369958947133       1.963686568891       1.886602726390      -0.030822545905      -0.015696106293       0.437277249480
113 1       1.687796272649       1.077116190566       1.193846673696       0.097889348294       0.197596884341      -0.445221605774
114 1       1.636077346337       1.799953380259       0.215852883636       0.166352779775       0.263679333594      -0.249260960551
115 1       2.251610123465       2.072196938706       2.782334660804      -0.179364642563       0.664011459050      -0.281408919526
116 1       2.292957106260       2.161009436179       1.749521879168      -0.515940174487       0.371182796309      -0.438738556923
117 1       2.047948220997       2.083099542466       2.188858704684       0.601303934956      -0.389945890690      -0.657662659779
118 1       2.394055735827       2.433246878027       1.944204635474       0.138053536613      -0.154857349333      -0.502421676332
119 1       1.551347340637       0.265289982297       2.323934535688       0.166726540889       0.622348316013      -0.446305972776
120 1       1.945575229240       1.178679667971       1.192199675422      -0.220941271288       0.350608851992      -0.512169201113
121 1       2.339786752620       2.296151791471       1.932911265664       0.489571589682       0.466693269444       0.432380781439
122 1       2.478347368525       1.881072525820       2.865528315762       0.059592653761       0.732957680774       0.377759491672
123 1       0.607942072070       2.052078108049       1.495094063296      -0.144872243996       0.075877715488       0.192586231725
124 1       0.540628593175       2.050036841184       2.321199055049       0.112110126374       0.325471399013       0.316666576487
125 1       1.793110444108       2.220998508619       1.870855454890      -0.627544322628      -0.751113470526       0.656916197112
126 1       1.856842578494       0.065774142892       2.079083999922       0.154347599611      -0.390394812632       0.264712163688
127 1       2.269178731620       2.267585032123       2.863408734219       0.391652414368       0.355834238284       0.258436056349
128 1       2.375133946482       2.346549477623       2.016358170683       0.548164995175       0.499008787579       0.191540943249
129 1       1.680690192850      -0.189810433756       1.920876721321      -0.147034233334       0.476301519361       0.189713996073
130 1       1.926611192029       2.283617327914       2.717376329857       0.184248625517       0.230190054880       0.636746620004
131 1       0.927021178120       2.010163089805       1.002123025507       0.201283365496      -0.582562466342      -0.225192115638
132 1       2.447277872137       2.308563308581       2.312491104257       0.411338998387      -0.091594822963      -0.054273505485
133 1       2.327949447812       2.524442940955       2.498836264585      -0.638692411180       0.651679775437      -0.254152641010
134 1       1.861634753131       2.255716004293       2.240568979940      -0.662799468831       0.596334530779      -0.919928490797
135 1       1.971533114985       2.196143588172       2.537826753032      -0.240155651246      -0.421764669837       0.443958389012
136 1       1.950732273964       1.246282330143       0.901765350403      -0.249702899804       0.169760510180       0.554093332991
137 1       0.384661753512       1.947534852112       1.983267583722       0.144827668844       0.100737634178      -0.168144870748
138 1       2.258493385949       2.430856622893       2.254259824005       0.287644264732      -0.381731407137      -0.304779904719
139 1       2.403152989248       2.215154817704       2.383529846449      -0.450405757679       0.330375961227      -0.042246152618
140 1       2.067773683954       0.609288605228       1.953776419589      -0.182395192895       0.350825014882      -0.199446604139
141 1       1.677165345571       1.654677772282       0.054456369933      -0.427670971282      -0.365810499650      -0.268735421603
142 1       1.821014974953       2.160192302013       1.496227157359      -0.486041796929      -0.280959141326       0.642830856173
143 1       2.080879888290       0.564694114869       1.512377419258       0.218184445627       0.206955119162       0.104801132014
144 1       2.231600546864       2.171159053426       2.429671912580       0.289675579582       0.561530804465       0.602110501645
145 1       0.595367574448       2.003631704437       2.523499184093      -0.173617176332       0.281420649090      -0.253516487357
146 1       0.327954252702       1.315961793594       1.141328494045       0.035818686934       0.347364748558      -0.054372642137
147 1       2.436186337281       2.462624082004       2.487674652206      -0.507777506644       0.383357542250      -0.235598232554
148 1       0.657671642673       1.834287892486       1.849358333293      -0.099049603571       0.326865813513      -0.068544103821
149 1      -0.020648741685       1.844899850997       1.792519412858      -0.187428507090      -0.144759345310      -0.372712898101
150 1       2.114805426178       2.185585355410       2.797412415752       0.184331142960      -0.558654240649      -0.205089144516
151 1       2.811053557315       2.441254095707       2.210090195778      -0.259271681804       0.178935403254      -0.145725199533
152 1       2.293892397870       2.385024011409       2.035099234640      -0.511029517901       0.575864763355      -0.523466314109
153 1       2.076656849253       1.998122852985       2.568614601327       0.459443421041       0.298264382081       0.275072641831
154 1       2.016564613513       1.229800649417       0.922425996666       0.275819247777       0.326733123331       0.460234245859
155 1       1.661103911229       1.752029665636       0.095583537835      -0.282364211408      -0.037180628955       0.143917551496
156 1       1.839357721180       2.200762337930       1.821453963520      -0.434804229684      -0.308092770498       0.677495524085
157 1       2.392402422798       2.218570806636       2.410712058330      -0.142528973351      -0.270769668789       0.550673140077
158 1       1.184815155476       1.980115686174       0.766244051204      -0.254785590200      -0.442599946315       0.175752275000
159 1       1.432937698503       0.695643264159       0.479504265627       0.125254223108       0.076394341399      -0.063161653384
160 1       1.992458792283       0.429053979722       2.210584847205      -0.115776663439       0.297090014287       0.049915145200
