ITEM: TIMESTEP
0
ITEM: NUMBER OF ATOMS
160
ITEM: BOX BOUNDS pp pp pp
0.0000000000000000e+00 8.4916681310000008e+00
0.0000000000000000e+00 8.4916681310000008e+00
0.0000000000000000e+00 2.5475004391999999e+01
ITEM: ATOMS id type c_pe_atom
1 2     -11.014269224636
2 2     -10.124393250448
3 2     -10.223551494575
4 2     -11.121366466743
5 2     -11.177639524975
6 2     -11.045583735045
7 2     -10.196392027039
8 2     -10.293645570323
9 2     -10.082987166646
10 2     -10.196865347086
11 2     -10.184416956589
12 2     -11.255770281129
13 2     -11.058448159825
14 2     -11.153075099998
15 2     -10.186463862723
16 2     -10.489022123428
17 2     -10.156281838355
18 2     -10.985348810353
19 2     -10.182834536091
20 2     -10.410934116143
21 2      -6.711140710888
22 2      -6.148381147580
23 2      -6.491056650739
24 2      -5.414673131866
25 2      -6.123888647773
26 2      -7.034829222336
27 2      -7.119267847481
28 2      -5.278893569151
29 2      -7.343884772397
30 2      -6.224395025598
31 2      -6.069550457358
32 2      -6.294845828668
33 2      -5.641407949711
34 2      -5.695505616606
35 2      -6.172710527851
36 2      -5.601093653959
37 2      -6.807686889332
38 2      -5.715354086092
39 2      -7.127092998377
40 2      -7.090098732613
41 2      -6.511248964015
42 2      -6.821600446950
43 2      -6.118441562570
44 2      -5.870973751683
45 2      -5.671518058126
46 2      -5.639164054304
47 2      -5.751273257912
48 2      -6.750287950019
49 2      -5.770085087943
50 2      -6.832001200868
51 2      -6.976669622856
52 2      -5.992758862571
53 2      -5.594828255931
54 2      -6.072557386814
55 2      -6.166041204679
56 2      -6.429019941465
57 2      -6.147829962054
58 2      -6.138575700824
59 2      -6.178887296664
60 2      -7.115634659212
61 2     -10.675009304636
62 2     -10.582851713211
63 2     -10.398353699937
64 2     -10.602194300940
65 1      -6.120181887715
66 1      -6.371502781986
67 1      -3.051131015239
68 1      -2.567291336067
69 1      -2.479628509526
70 1      -2.719141041393
71 1      -6.171810044126
72 1      -2.630123811408
73 1      -6.304872439181
74 1      -2.578856484534
75 1      -2.499797207535
76 1      -6.790258935006
77 1      -3.309387255894
78 1      -3.105232020588
79 1      -2.598138950005
80 1      -7.152329294056
81 1      -6.262626148137
82 1      -6.113594344097
83 1      -6.402710268951
84 1      -6.513155498922
85 1      -3.007072661909
86 1      -2.655988582705
87 1      -6.090141162969
88 1      -6.506409064138
89 1      -6.579684659263
90 1      -6.194844449915
91 1      -2.625192067366
92 1      -5.848814874081
93 1      -3.133342484364
94 1      -2.574425976782
95 1      -7.243554747631
96 1      -2.620066338423
97 1      -2.647524838599
98 1      -6.892450241859
99 1      -6.792066660711
100 1      -3.008385590300
101 1      -5.910435868713
102 1      -2.923852449122
103 1      -3.365521153831
104 1      -6.284570417063
105 1      -2.676522718060
106 1      -6.135674955904
107 1      -2.684069062904
108 1      -2.914403766944
109 1      -6.517396092885
110 1      -6.117078739734
111 1      -2.694774765313
112 1      -2.571101422277
113 1      -3.188200748669
114 1      -2.451770868277
115 1      -6.161202868467
116 1      -6.236537175634
117 1      -6.486223036603
118 1      -6.137361345518
119 1      -3.108144087648
120 1      -3.441146707753
121 1      -6.460275745725
122 1      -6.659060339890
123 1      -2.780537506114
124 1      -2.342771115695
125 1      -6.703372915055
126 1      -2.839982408660
127 1      -6.474933696076
128 1      -6.493873356781
129 1      -3.257569183104
130 1      -6.134296177846
131 1      -3.233748581192
132 1      -6.189649538122
133 1      -6.363280110719
134 1      -7.242835647366
135 1      -5.900838883356
136 1      -3.393927908549
137 1      -2.712258328173
138 1      -5.918826827866
139 1      -6.270677942282
140 1      -2.643683292189
141 1      -2.701861420632
142 1      -6.383312763639
143 1      -2.603657775526
144 1      -6.144787140776
145 1      -2.267263990735
146 1      -3.340361073115
147 1      -6.187066722789
148 1      -2.639118981269
149 1      -2.713250694345
150 1      -6.431071204059
151 1      -6.169879185555
152 1      -6.832934220729
153 1      -6.080554111375
154 1      -3.144331569643
155 1      -2.347927702790
156 1      -5.975413271659
157 1      -6.090472674612
158 1      -3.263737204785
159 1      -2.835944099152
160 1      -2.940581387598
