160
Config_type=bulk_gamma_phase Weight=1.0 Lattice="8.491668131 0.000000000 0.000000000 0.000000000 8.491668131 0.000000000 0.000000000 0.000000000 25.475004392" Energy=-1359.44635420 Virial="-66.42064 -0.03731 -19.71244 -0.03731 -67.25306 -2.43651 -19.71244 -2.43651 -64.64505" pbc="T T T" Properties=species:S:1:pos:R:3:forces:R:3
Ga	      1.23073      5.27135     22.41028         0.003219      0.011936      0.001589
Ga	      5.27725      0.85856     13.86568        -0.005904     -0.003721     -0.022450
Ga	      7.26363      7.51036      7.49166         0.001395      0.000981     -0.006185
Ga	      7.39273      7.23382     15.99115         0.000082     -0.003023     -0.001668
Ga	      5.30087      5.31810      0.99579         0.004323     -0.005660     -0.012110
Ga	      3.07428      3.24884      7.30637         0.001195      0.001054      0.008026
Ga	      0.96819      1.05991      1.09626        -0.000157     -0.002982     -0.009274
Ga	      5.24448      1.03823      5.31630         0.002931      0.010889     -0.002091
Ga	      3.22890      3.01150     15.88155        -0.010102      0.020415      0.023191
Ga	      5.45663      1.13576     22.22089        -0.005628      0.000939      0.011962
Ga	      3.18910      7.35732     11.67729        -0.002511     -0.003557      0.001720
Ga	      7.52968      3.24578     20.09138        -0.008249      0.004666     -0.007206
Ga	      1.03473      5.17094     13.67458         0.000101     -0.005195      0.000178
Ga	      7.42867      3.26977      3.24985         0.003973      0.019261      0.008846
Ga	      5.16985      5.40162      9.50651        -0.007954      0.001599      0.004221
Ga	      7.46541      7.54945     24.43984        -0.003405      0.020117      0.009769
Ga	      3.23729      7.55575     20.20235        -0.006564     -0.008233      0.005398
Ga	      0.92952      1.09020      9.66273         0.010765      0.003754     -0.010991
Ga	      3.27006      7.52810      3.15114        -0.000117      0.015499     -0.009415
Ga	      1.19601      1.04347     18.07057         0.040795     -0.009613     -0.015849
Ga	      3.99346      0.18592      8.50251         0.008630     -0.019381     -0.006531
Ga	      6.22127      6.20505     12.71466        -0.025252     -0.017965      0.020406
Ga	      2.18901      2.15415     21.24416        -0.000498     -0.026409     -0.003824
Ga	      6.49925      6.39320     21.20886         0.028555     -0.003738      0.015858
Ga	      1.99515      6.49790      8.40534        -0.001937      0.011687     -0.009392
Ga	      8.43436      2.09611      6.32903         0.008888      0.011818     -0.001202
Ga	      2.02245      2.12888      4.28134         0.010327      0.010394     -0.016753
Ga	      0.06181      2.04429     14.83472        -0.001890     -0.000610      0.007328
Ga	      0.16027      6.29845     19.05850        -0.012855     -0.005622      0.000721
Ga	      6.36037      0.05476      2.13201         0.000399     -0.020427      0.002296
Ga	      6.18000      0.07286     10.67510         0.008876     -0.012865     -0.005903
Ga	      4.22384      2.22833     19.05953         0.000614     -0.002913     -0.004699
Ga	      6.50195      8.46706     19.12068         0.032639      0.023151     -0.005708
Ga	      6.44616      2.06740     16.95840        -0.000341     -0.002997     -0.009929
Ga	      0.16387      2.08928     23.41156         0.009603      0.017652     -0.006166
Ga	      2.07032      8.28049     14.95158         0.006313      0.008253     -0.005592
Ga	      4.06458      6.11854     14.86677         0.012365      0.000339     -0.000816
Ga	      6.32021      4.26175      6.40510         0.019838     -0.003855     -0.008885
Ga	      4.27535      6.46785     23.39091        -0.002941     -0.003125      0.002394
Ga	      0.09683      4.24321     16.97651        -0.019625     -0.002667      0.015573
Ga	      2.11743      4.30058      2.12145        -0.004106     -0.014909     -0.002216
Ga	      4.17907      4.37233     21.17388         0.008253      0.007571      0.001120
Ga	      4.19498      8.30023     17.04394        -0.000924      0.010851     -0.003100
Ga	      6.41045      4.29655     23.28751         0.001320      0.003761     -0.008024
Ga	      8.43002      6.31192     10.58328         0.004585      0.011655     -0.007508
Ga	      8.47948      8.41148     12.76800         0.006790     -0.003518     -0.002016
Ga	      0.01597      4.34179      0.04985        -0.008449      0.017257     -0.007151
Ga	      6.29627      4.11913     14.82822         0.004641     -0.008451      0.004583
Ga	      4.21188      4.24524      4.19765         0.029676     -0.002848      0.008426
Ga	      2.15256      2.06207     12.67024        -0.011349      0.014714     -0.002501
Ga	      2.11927      4.17843     10.63493        -0.009332      0.005969     -0.022395
Ga	      0.03992      6.53240      2.22601         0.001838      0.014550     -0.005115
Ga	      0.20545      8.45104     21.33171         0.008483      0.003253     -0.005229
Ga	      4.17862      2.05365      2.01533         0.014816      0.002674     -0.012983
Ga	      6.29185      2.07459     25.42606         0.015801     -0.000123     -0.000858
Ga	      8.47984      4.18676      8.48925        -0.011367      0.005988      0.002719
Ga	      6.16157      2.19174      8.59029         0.000578     -0.006350      0.007355
Ga	      4.07984      6.51488      6.31343         0.000675      0.014847      0.006411
Ga	      6.42527      6.51950      4.30551         0.005100     -0.006123     -0.012224
Ga	      2.21125      6.47100     25.44591        -0.001750     -0.003707      0.006319
Ga	      5.22677      3.16012     11.71606        -0.009918     -0.003729      0.004243
Ga	      3.22289      1.07887     24.38876        -0.022728     -0.029214      0.019299
Ga	      3.20216      5.24714     18.03628        -0.025934      0.008461      0.006067
Ga	      1.00219      7.51155      5.30501        -0.011493      0.003719      0.001591
O	      2.15218      2.16409      2.14476         0.000733      0.001677     -0.003510
O	      6.24455      6.31397      6.33060         0.001285     -0.005112     -0.011160
O	      4.33763      8.41321      6.52178         0.015997     -0.009248     -0.005718
O	      4.37125      0.13055      2.14583        -0.006119     -0.007670      0.002556
O	      8.36168      6.49078      4.16812        -0.000187      0.000698      0.006566
O	      0.03969      2.24533      4.33981        -0.001321     -0.002346     -0.005549
O	      6.26603      4.21327      8.46278        -0.004573     -0.003496      0.014195
O	      1.90741      4.52325      0.26038         0.001430     -0.011351      0.007175
O	      8.47756      4.41703      2.11219        -0.009373     -0.001958     -0.005209
O	      8.20099      4.05050      6.63082         0.004912      0.010847     -0.000027
O	      4.35583      2.09606      0.06910        -0.006042     -0.004233      0.000655
O	      4.07077      6.45986      8.35586         0.008331     -0.005454     -0.000009
O	      2.13713      0.07819      4.23133        -0.001245      0.003021      0.008397
O	      6.21566      8.42870      4.14364         0.000604     -0.004219      0.004537
O	      2.13894      6.52019      6.45516        -0.001329      0.017378     -0.002785
O	      6.30918      2.14351      2.06051        -0.002668     -0.009575     -0.002785
O	      4.24646      4.17591      2.13047        -0.003656     -0.012460      0.001675
O	      4.27920      4.38860      6.24874        -0.005432     -0.004183     -0.003266
O	      8.29580      2.12987      8.48723        -0.012905      0.008678      0.000383
O	      0.03992      6.39248      0.08113         0.000017     -0.007935     -0.003122
O	      8.35162      0.06610      6.39057         0.002122      0.009590     -0.004505
O	      8.35164      8.46017      2.09955         0.001634      0.002427     -0.003898
O	      4.29357      6.31425      4.30047         0.001351     -0.001467     -0.001455
O	      4.18099      2.19533      4.17244         0.001304     -0.000418     -0.001883
O	      6.34130      2.18744      6.43346         0.008238     -0.000049     -0.002872
O	      2.08033      6.43073      2.09802        -0.000382     -0.003796      0.001564
O	      2.32247      4.07801      3.98126        -0.007258     -0.007197     -0.005683
O	      6.24414      4.38150      4.33557         0.003724     -0.001410      0.000789
O	      6.49323      0.16237      0.11489        -0.001768      0.002221     -0.003550
O	      2.08186      8.44170      8.67873         0.012147     -0.000038      0.017423
O	      6.41075      6.45000      2.18647        -0.007153      0.003817      0.005117
O	      1.92841      2.22972      6.23784        -0.000623      0.003211      0.004095
O	      2.00946      2.19703     10.70656        -0.006846      0.007593      0.000401
O	      6.29352      6.19950     14.78869         0.001313     -0.005173      0.005131
O	      4.16764      8.30728     15.00553         0.009144      0.012082      0.005637
O	      4.28346      8.29696     10.47443         0.006893     -0.012229      0.003655
O	      8.34364      6.37523     12.63337        -0.002668     -0.005653      0.005272
O	      0.19629      1.79442     12.96878        -0.009738     -0.005832      0.016480
O	      6.66045      3.93263     16.70881        -0.004671     -0.007362      0.000257
O	      2.05373      4.36926      8.49221        -0.003387     -0.006177     -0.002120
O	      0.15055      4.43572     10.34932        -0.004729     -0.001873     -0.004089
O	      0.01536      4.07154     14.86632         0.004376     -0.003262      0.000700
O	      4.21431      2.10251      8.30411        -0.013256     -0.008511     -0.010239
O	      4.14481      6.38327     16.85380        -0.015109      0.006692      0.008248
O	      2.06181      8.45248     12.79077        -0.006270     -0.003054      0.001124
O	      6.42140      8.33122     12.68770         0.012133     -0.001493     -0.004316
O	      2.13950      6.34732     14.67256         0.018407     -0.014450     -0.009761
O	      6.17223      2.01778     10.53332        -0.014840      0.002771     -0.001107
O	      4.16319      4.29444     10.62284        -0.004669      0.003215      0.005937
O	      4.33933      4.20361     14.98002        -0.002401      0.000367      0.011995
O	      0.03458      2.05638     16.87628        -0.007075     -0.002812      0.005833
O	      8.45649      6.39467      8.52054         0.007746      0.011574     -0.004880
O	      0.05072      8.36193     14.86621         0.013642     -0.003980      0.001837
O	      8.30306      8.36171     10.72297         0.005830      0.003633      0.000968
O	      4.32283      6.46124     12.89322         0.008240      0.009434     -0.001409
O	      4.21472      1.97482     12.79073        -0.002864     -0.005260      0.006186
O	      6.46261      1.98513     14.89090        -0.002023     -0.001927     -0.006168
O	      2.02488      6.28691     10.55008        -0.000182     -0.002927      0.004445
O	      2.04696      4.05030     12.59441        -0.004713      0.010289     -0.001392
O	      6.25768      4.26589     12.86650        -0.011433     -0.007105     -0.001411
O	      6.20241      0.11202      8.63195         0.003788     -0.012002      0.004610
O	      2.26560      0.07131     16.88167         0.005195      0.010944      0.006666
O	      6.38041      6.40125     10.66539         0.000795     -0.008754      0.006770
O	      2.13088      1.91133     14.78096         0.001979      0.010734     -0.000936
O	      2.30830      2.01107     19.22725        -0.003675     -0.003443      0.000366
O	      6.42280      6.40276     23.25527         0.004663      0.000846     -0.000984
O	      4.38269      0.04200     23.30334        -0.003076     -0.003052      0.005426
O	      4.43292      0.06406     19.03562        -0.005385      0.002513      0.003894
O	      0.11921      6.43719     21.26801        -0.005455      0.003434      0.001276
O	      0.11939      2.10535     21.29003         0.000018      0.004554      0.005313
O	      6.48271      4.21154     25.37772        -0.003014      0.003061      0.004413
O	      2.13567      4.09615     16.96704         0.002100      0.003933     -0.007495
O	      0.03634      4.31848     18.96049         0.002392     -0.006577     -0.005168
O	      8.45334      4.19817     23.46196        -0.003316     -0.000783      0.002551
O	      4.40441      1.97473     17.06264         0.001407     -0.006382     -0.000277
O	      4.20357      6.34266     25.36979        -0.001508      0.003909      0.003307
O	      2.11620      0.14441     21.20380        -0.006375     -0.015095      0.002494
O	      6.56760      0.02395     21.15503        -0.004290      0.004696      0.000724
O	      2.29829      6.36641     23.48800        -0.004443     -0.001036     -0.010652
O	      6.38403      2.02626     19.01873         0.004214      0.006626      0.000226
O	      4.23357      4.16931     19.22378        -0.005304     -0.001513     -0.008998
O	      4.55036      4.54012     23.05819         0.011599     -0.002074     -0.002783
O	      8.42933      2.27514     25.42513         0.002463      0.007013     -0.007315
O	      8.48946      6.20828     17.07977        -0.003675     -0.004520      0.001674
O	      8.39321      0.16907     23.24978        -0.011863      0.001119     -0.009730
O	      0.05952      8.45734     19.18267        -0.001058      0.006468     -0.007950
O	      4.40901      6.44117     21.24441         0.000435      0.003777     -0.005758
O	      4.30245      2.22980     21.12446         0.001546      0.003714      0.002668
O	      6.49356      2.27726     23.40293        -0.002697     -0.000438      0.002314
O	      2.18023      6.40133     19.14024        -0.010329      0.001288      0.002721
O	      2.25657      4.13632     21.34619         0.006614     -0.004672      0.007685
O	      6.47857      4.36108     21.24409        -0.003432      0.004456     -0.008466
O	      6.33083      0.00400     17.06200         0.005843     -0.006923      0.003191
O	      2.10244      0.01759      0.01278        -0.013486      0.005715      0.009618
O	      6.71964      6.58450     19.34142        -0.003663     -0.000937      0.015834
O	      2.07855      2.06257     23.25310        -0.006754     -0.015269      0.003762
