ITEM: TIMESTEP
0
ITEM: NUMBER OF ATOMS
160
ITEM: BOX BOUNDS pp pp pp
0.0000000000000000e+00 8.3538450439999998e+00
0.0000000000000000e+00 8.3538450439999998e+00
0.0000000000000000e+00 2.5061535131999999e+01
ITEM: ATOMS id type v_vir_xx v_vir_yy v_vir_zz v_vir_xy v_vir_xz v_vir_yz
1 2      -3.377498406754      -1.253778792062      -1.321355944252      -0.007526322118      -0.199867595281      -0.112428289154
2 2      -3.656555214568      -2.752695011123      -3.273126070592      -0.272279663201       0.481872825380       0.102902502874
3 2      -2.565883115883      -3.599270228528      -3.029734872220       0.340934714020       0.482215989699      -0.016726487748
4 2      -1.034897054865      -3.119043796892      -3.127944739830       0.316500860391      -0.236265657658       0.537388380765
5 2      -3.213062065417      -1.179592326029      -3.024967545384       0.126932016982      -0.061425051138       0.060994030006
6 2      -3.333920765852      -1.331208140276      -1.884535226454       0.258612516322      -0.013698460834      -0.365255867072
7 2      -2.679032952958      -3.832891897525      -1.393542917749      -0.638912425518       0.041042406858      -0.047684065133
8 2      -0.853036362808      -4.180780843879      -3.164979387275       0.089324941081      -0.237241154128      -0.317981572485
9 2      -4.039026011796      -2.820506032348      -1.330958237419      -0.598581663195       0.093540060979      -0.334447321152
10 2      -2.759696520300      -3.625612518392      -3.115960145650       0.342146605537       0.106086701345      -0.282783276511
11 2      -4.243386098488      -1.188616395430      -3.354859360006      -0.031416898837       0.326744477743      -0.181689661260
12 2      -1.025224355519      -3.122475069984      -3.084891134111      -0.006535233954       0.508290837833       0.480574070823
13 2      -1.485276315531      -3.348303836346      -2.088452277058      -0.351514775898       0.642019947255      -0.137952431452
14 2      -3.136948764225      -1.188401088312      -3.096037352717       0.151558194943      -0.062453955520       0.034085139999
15 2      -3.682446945205      -2.547272554047      -3.007893273627       0.369602631078       0.173791272898       0.391047812196
16 2      -0.573687222481      -4.001274386190      -3.392622901550      -0.095173459079      -0.285913440945      -0.066869026673
17 2      -3.615230992367      -2.899284992000      -1.467649288943       0.545665221718       0.021405803100       0.147679153117
18 2      -1.288002300501      -3.373293801941      -1.849755644942       0.092794420799      -0.275050544718      -0.312535174317
19 2      -2.709846276411      -3.827976489109      -1.392545699808      -0.626099553631       0.092608705295      -0.019242881998
20 2      -3.996273614254      -0.645422617563      -3.391824494851       0.172923582029       0.261658844002       0.566722515910
21 2      -2.254145716797      -2.361057774106       0.076912961855      -0.578101555590       0.133251315124       0.134621016224
22 2      -1.745400210135      -1.862495574172      -3.688636808129      -0.581652453845      -0.322948799076       0.392488673941
23 2      -3.393646866843      -0.376254907860      -0.300019215832      -0.217361661827       0.403023581726       0.506614988360
24 2      -2.454670005753      -3.239766510251      -2.872458913878      -0.733311074815       1.268558962357       1.205415741814
25 2      -3.318618762665      -1.129138383022      -1.688462864614      -0.395876154227       0.404843116505       1.001292999945
26 2      -2.054895373223       0.205477696609      -1.840172604792       0.329064993925       0.227099005205      -0.667813507165
27 2      -1.851459123953       0.627599483115      -2.182569502635      -0.388716293762       0.291853592746       0.245883613737
28 2      -3.007928804550      -2.800803526214      -3.014111494687       0.761387170809       1.265418054913      -1.323701837267
29 2       0.072436668602      -1.885753927842      -1.708323635276       0.224124682630       0.479420709540      -0.468211327820
30 2      -0.389540954748      -3.407792380171      -0.210111829503       0.768947484734       0.221413572386       0.605586512296
31 2      -1.504835114344      -1.881930569713      -3.654062802128       0.348841207539       0.704143588855       0.250499659916
32 2      -1.496073415421      -1.486083309430      -3.817549947732       0.432425915269      -0.205501351675       0.204211787119
33 2      -2.829904749522      -2.889022756086      -3.425429018234       0.718047427683      -0.072167418152       1.040221120442
34 2      -3.038167294150      -2.736351272692      -3.718950904805      -0.728594934677       0.180544343464       1.227020940519
35 2      -1.925469578312      -1.501911082545      -3.209030730349       0.365304774600       0.479016174518       0.672986264731
36 2      -3.185117836831      -1.522049819381      -1.748843413504       1.117731640131      -0.360060868002       0.132812395795
37 2      -2.030242983264      -2.381630982169      -0.149919949892      -0.017254858060       0.778268886153       0.259313696828
38 2      -2.563779316478      -2.955650378473      -3.150990195087       0.602690837481      -0.557348949316       0.111586189376
39 2      -1.938227944901       0.491309935728      -2.176467475316       0.297842568181       0.018503033914      -0.623872639554
40 2       0.304854576817      -2.147791904678      -2.285693386568      -0.306759047928      -0.275936699232      -0.080692978106
41 2      -2.929236762391      -2.686581729949      -2.193264171380       0.115379690279      -1.366678691675       1.340770924060
42 2      -1.587356717729      -2.959746923427      -0.724115522099       0.306851006809      -0.971258510329      -0.495815026685
43 2      -1.542323865829      -1.753586596205      -3.765630499229      -0.357983388015       0.695084816663      -0.074725657538
44 2      -2.685195882742      -3.168513264435      -3.302619776940       0.693164521762      -0.664673227814       0.202197251432
45 2      -3.072974198966      -2.662478242888      -3.377001791942       0.651827214258       0.305266782797      -0.768058770918
46 2      -2.927866218209      -2.797309401191      -2.944001660357      -0.536852766943       0.026838632281      -0.733852356771
47 2      -2.657970266662      -2.985400790679      -3.086952138690      -0.679805934730      -0.776284859913      -0.029909977237
48 2      -1.494593459173      -3.009578698371      -1.052726549410      -0.267262269840      -1.013881680506       0.657451455469
49 2      -2.631413756716      -3.038883958975      -3.265068834225      -0.725365347358      -0.834137141130       0.083369901620
50 2       0.112456218204      -2.044233278146      -2.115494692267      -0.287439776744       0.653288071431       0.079650532954
51 2       0.361991171279      -2.047376720615      -2.073555431210       0.239703915206      -0.345892129266      -0.072519041464
52 2      -2.909215864311      -1.587845665932      -1.490750964203       0.255244936040       0.459299019318      -0.750181140805
53 2      -1.877097698691      -2.980785648522      -1.471495963825      -0.920936724547       0.166997878961      -0.582592526938
54 2      -2.904059996977      -1.595384049190      -1.441058751063       0.288008723566       0.531965401548      -0.724590690906
55 2      -1.660593765464      -1.494083842011      -3.160574929169      -0.358371846281       0.214275406953      -0.218344224472
56 2      -2.788149102235      -2.780960737913      -2.134771864566      -0.113245733567      -1.291789663406      -1.501375246880
57 2      -1.029218036079      -3.300592550634      -1.664896594789      -0.389112690266       1.071682581660       0.230327460836
58 2      -1.958325438797      -1.574517357624      -3.717386907089       0.436045999858       0.430841239614       0.591870639633
59 2      -1.619856804870      -1.518207845820      -3.230793176195      -0.397307091551       0.382656800252      -0.171440921236
60 2      -1.815466202498       0.548496915815      -2.275469834195      -0.379528849018       0.435874903794       0.170255113194
61 2       0.082977751965      -1.610471693720      -1.488958063257      -0.015786836662       0.122063281314       0.993047841675
62 2      -1.468084081609      -0.175829082538      -1.505448678931      -0.024032205406       1.040685385460       0.154912034608
63 2      -0.145656839095      -1.469283208010      -1.406060132045       0.135072965851       0.102065725301      -1.150185493171
64 2      -1.492809717778      -0.021664690079      -1.478179979513       0.004706781527       1.062788980485       0.007076930885
65 1       2.375754497130       1.928355255878       1.742296704708       0.337348639313       0.133746107368       0.036714404795
66 1       1.949958125219       1.967759803341       2.438899298552       0.291278137026       0.246797464307       0.255070373229
67 1      -0.077573302024       1.236322555468       1.911908045618      -0.299456293644      -0.218485007020      -0.574066232422
68 1       0.955805285728       1.212872365017      -0.367111230269       0.360959789503      -0.055435323724       0.026600752036
69 1       1.548568741592       0.409722749997       1.466495070795      -0.133732232229       0.371367841425      -0.199006226312
70 1       1.388052831594       0.140774589149       1.201590858588      -0.142950183214       0.374438479255      -0.244129200785
71 1       1.874182269753       1.914042430771       1.312791195909      -0.468064943086      -0.154742549520       0.316902417128
72 1       0.883349367145       1.210547807230       0.935119343387      -0.093925813324       0.093761321613       0.020904461100
73 1       2.039015024067       1.820699923659       1.476765193502       0.431573528842      -0.463615902565      -0.328223345540
74 1       0.658803425918       1.267929918491       1.024619650629       0.237508914450       0.148102003089      -0.069726567937
75 1       1.595529255995       0.426149035331       1.504546365809      -0.151041273722       0.485396229181      -0.178056747102
76 1       2.023395129225       1.806897728968       1.685313235453      -0.596855744426       0.561959134098      -0.683145546816
77 1       0.700615979695       1.417354428126       0.360108810788      -0.049585091821      -0.255905465360      -0.000475328227
78 1      -0.367417391296       1.311534177416       1.418500630125       0.072805478955      -0.244092608366       0.443005285552
79 1       1.546605414704       0.467699006436       1.560191928616       0.162868027650       0.424977431516       0.096092323849
80 1       2.022373862311       1.934659660766       2.029352918123       0.622057773361       0.632538252696       0.730726458596
81 1       2.039110566406       1.844251975081       1.486025750166       0.428484955655      -0.467729931064      -0.330831560692
82 1       2.132152753378       1.907991348263       1.610517584940       0.260551567355      -0.348968138537      -0.275427103373
83 1       2.258099564292       1.995056654303       1.847098828382      -0.351532472617       0.126533613797      -0.316751722228
84 1       1.972367207806       1.754353068446       2.678685680463      -0.058581548742       0.321951995474      -0.503559170187
85 1       0.499061572578       1.137383949551       0.648967124145      -0.025737610631      -0.403276314494       0.059134954428
86 1       1.016099041630       1.248171695289      -0.259980953961       0.365221905806      -0.027218548869      -0.002515328835
87 1       2.146788081985       2.221692582703       2.241274968370      -0.304378322758       0.319787742724      -0.237895342079
88 1       1.959747620797       1.803153310517       2.684259078933      -0.059007296388       0.343417749634      -0.593311416452
89 1       1.653433889401       2.081020753683       2.525806434968       0.008014714066       0.369296836481       0.594836137364
90 1       2.402907036390       1.896617774037       1.739015042874       0.339848051986       0.125570412956       0.038701596882
91 1       0.740999060653       1.165872345355       0.933310857596      -0.119112083660       0.112761467010      -0.002049427744
92 1       1.832854813750       1.890532233144       2.108271999446      -0.180874991504      -0.384526858619       0.422812604380
93 1      -0.455878531996       1.324689000589       1.399049506649       0.125271010937      -0.122266109986       0.386323691231
94 1       1.172506379036       1.217933087660       0.130427629948      -0.343374007491      -0.321128443471      -0.204862504076
95 1       2.016305972448       1.939427976575       1.990236584355       0.641070268347       0.634684294698       0.751789113889
96 1       1.534311275510       0.552385911179       1.203597071046       0.116853607020       0.169865351846       0.047483021674
97 1       0.498582778441       1.462798242809       1.084622756489       0.139179011957       0.239151935572       0.176437289954
98 1       1.809838113229       1.859447276032       1.761629253209       0.492783888150       0.634536014295       0.578191583332
99 1       2.144342446499       1.708770392996       1.542501910295       0.532159538863      -0.763154402343      -0.421122430815
100 1       1.116046845075      -0.034987141686       1.899753320610      -0.183017047830      -0.561365540549      -0.332742641974
101 1       2.028926709541       2.249401903345       1.910984006253      -0.318273945757       0.311690972599      -0.495130029583
102 1       1.199157320995       0.626747421714       0.529824094960      -0.310370952978       0.234132115425      -0.067900613468
103 1       0.966818726652       0.578271834392       1.093878762715      -0.002993824448      -0.161376919940      -0.049705042068
104 1       1.978858798622       2.156690268713       1.848018072765      -0.245397863588      -0.237878626517       0.104824717683
105 1       1.356121079763       0.611405955355       1.074545412940       0.169528171110      -0.069201979308       0.121226782818
106 1       1.643266827690       2.241525045448       1.854423147019       0.323565005589      -0.086564517515      -0.322952607079
107 1       1.261466101532       1.298674803607       0.223048097172      -0.332358349386       0.079297704383      -0.404632722544
108 1       0.481602599399       1.404983295721       1.916642771803      -0.078865346932       0.130671510557      -0.501454443509
109 1       2.057795398519       1.712229247087       2.591081349093       0.033642636822      -0.414803988921       0.274975732592
110 1       1.920199252843       1.830766156023       2.364297714874      -0.225263394424      -0.132361762119       0.064233574369
111 1       1.223011675136       1.277158745797       0.290632811735       0.311891027055       0.095451709431       0.339244748737
112 1       0.382596626048       1.648483581267       1.518633365288       0.194936725249       0.182013634034       0.442765386159
113 1       1.211530217751       0.554418045486       0.886556344413      -0.083160286363       0.203252251726      -0.402132200260
114 1       1.218362579299       1.252786569341      -0.037782142313       0.260450459544       0.348332353946      -0.194135280097
115 1       1.968136042107       1.931037650980       2.505019461146      -0.106261734707       0.539795965563      -0.330264808207
116 1       1.996472844883       1.991944856512       1.480156556010      -0.544654193741       0.347088232632      -0.214217617459
117 1       1.723652370581       1.845379845388       1.802901926851       0.573110902063      -0.399316186774      -0.406582370188
118 1       2.017008343788       2.202791124644       1.760258717966       0.168491004798      -0.247638173479      -0.391938005876
119 1       1.104389872749      -0.162320951794       1.853757895397       0.249473853898       0.599504946705      -0.360992474515
120 1       1.424623339892       0.692647041220       0.625602367217      -0.053121112709       0.096548416904      -0.402044990930
121 1       2.077173216731       2.104651487707       1.642078497563       0.524025151562       0.328602657966       0.310787782117
122 1       2.188065789466       1.725820877853       2.600545478664      -0.046995397323       0.632118141215       0.353349073486
123 1       0.402566893523       1.533769482761       0.990685719793      -0.093710930822      -0.025503489895       0.216160843596
124 1       0.549027816664       1.721804211010       1.945199486985      -0.087226250651      -0.005589198522       0.314863615848
125 1       1.726631264393       2.054313279669       1.599201935491      -0.579932085344      -0.658764255236       0.562903810901
126 1       1.407489901991      -0.289403604657       1.459272906289       0.140860819557      -0.406112143915       0.163907424391
127 1       1.962038637489       2.059186526987       2.590204830922       0.249747118600       0.240416095980       0.204388319349
128 1       2.109320884345       1.961726168533       1.838862187374       0.450643552529       0.237545667853       0.115917470191
129 1       1.328279632660      -0.496385077646       1.514297826873      -0.141262860859       0.455357051191       0.117050250772
130 1       1.807090750663       2.024300828503       2.470278627812       0.114102936471       0.214941968597       0.570077982097
131 1       0.458617404136       1.506171879671       0.705991669589       0.027228169694      -0.464434463225      -0.036714226977
132 1       2.214642873100       2.145188896269       2.089429983539       0.234828132556      -0.129611201692      -0.017016597273
133 1       1.835588218238       2.094417047858       2.167712430730      -0.430240242361       0.439559412141      -0.243835998426
134 1       1.772588721591       2.105157015830       2.059225067273      -0.600484701487       0.515050400492      -0.856273452618
135 1       1.803848741148       1.900000000501       2.225277328545      -0.226990362540      -0.385515906051       0.446384303880
136 1       1.429432156224       0.657905015131       0.540153868170      -0.086983105986       0.177825268189       0.480025237540
137 1       0.065489105630       1.370262381860       1.245854672069       0.136193650857      -0.071144086134      -0.219235444430
138 1       2.062709613317       2.037560640486       1.925368030966       0.311689144371      -0.375784644581      -0.368133930164
139 1       2.172213119963       2.097403060438       2.193904113727      -0.266010995842       0.299413556778      -0.055864630707
140 1       1.471716529645       0.139602722163       1.310075158069      -0.159312186925       0.325044263620      -0.214537356167
141 1       1.170696805812       1.186160845058      -0.137738406918      -0.372209945590      -0.266636487498      -0.241425417711
142 1       1.644018027057       2.099699490097       1.405424172384      -0.474601867382      -0.280491583724       0.459017819378
143 1       1.599243143300       0.308083717939       0.962514493035       0.177526994078       0.283396227263       0.131256138655
144 1       2.077965990378       2.027743142233       2.306187983656       0.332210363455       0.518327325389       0.486510260513
145 1       0.496128702483       1.633427920248       2.116034734864       0.143030951519      -0.018627725459      -0.270405701154
146 1       0.354374223415       1.097652167245       1.116801459003       0.054674832243       0.106659716682      -0.035418910297
147 1       2.247080003630       2.236496751235       2.315527978327      -0.329132284795       0.324551122708      -0.257839491641
148 1       0.245916239088       1.417480580929       1.263365607894      -0.068012549403       0.247293472516      -0.192202096415
149 1      -0.372804664974       1.397400253243       1.275115506878      -0.193738436804      -0.131949305093      -0.449301660820
150 1       1.764532224266       1.994350011444       2.561257142033       0.118453499601      -0.418015090130      -0.229394621519
151 1       2.410562286089       2.079825799710       1.879404209417      -0.194342937100       0.060355531188      -0.056615056472
152 1       2.062673747919       2.122905224050       1.753102180589      -0.545184530772       0.598029466298      -0.402315025516
153 1       1.937510555702       1.808343608150       2.321187933448       0.249477040749       0.217025577130       0.288514067089
154 1       1.441588065626       0.801479130649       0.391545740327       0.154461184638       0.144938849200       0.469196153557
155 1       1.296195919963       0.992563630991      -0.305861472758      -0.292340912095      -0.053109828310       0.110615517728
156 1       1.708143099799       1.883537508727       1.493357431332      -0.464759913193      -0.243751268962       0.571601246164
157 1       2.029606238948       1.943866131958       2.200674677825      -0.193678385669      -0.348297735872       0.369547614680
158 1       0.742928305896       1.411349022819       0.459499002131      -0.085488855058      -0.379982660535       0.036037334766
159 1       1.395957465695       0.795086888517       0.620211850026       0.164469874763       0.150017729531       0.159390347945
160 1       1.671105516331       0.536412797774       1.877415112124       0.127366368819       0.252872335100       0.256930490782
