30
Config_type=bulk_alpha_phase Weight=1.0 Lattice="5.053588171 0.000000000 0.000000000 -2.526794085 4.376536153 0.000000000 0.000000000 0.000000000 13.604621138" Energy=-255.13605760 Virial="2.31159 -0.00003 0.00005 -0.00003 2.31153 -0.00001 0.00005 -0.00001 2.11403" pbc="T T T" Properties=species:S:1:pos:R:3:forces:R:3
Ga	      0.00000      0.00000      1.96033         0.000012      0.000026     -0.015095
Ga	      0.00000      2.91769      0.30711        -0.000014      0.000060      0.014941
Ga	      2.52679      1.45885      2.57454         0.000106     -0.000080      0.015036
Ga	      0.00000      2.91769      4.22777        -0.000005      0.000032     -0.014962
Ga	      2.52679      1.45885      6.49520         0.000051     -0.000081     -0.014999
Ga	      0.00000      0.00000      4.84198        -0.000041     -0.000007      0.015142
Ga	      0.00000      2.91769      7.10942        -0.000036      0.000051      0.014952
Ga	      0.00000      0.00000      8.76264        -0.000036      0.000042     -0.015101
Ga	      0.00000      2.91769     11.03008        -0.000025      0.000039     -0.014935
Ga	      2.52679      1.45885      9.37685         0.000059     -0.000080      0.015031
Ga	      0.00000      0.00000     11.64429        -0.000043      0.000012      0.015110
Ga	      2.52679      1.45885     13.29751         0.000052     -0.000099     -0.015004
O	     -0.76573      1.32630      3.40116        -0.002846      0.004696     -0.000117
O	      1.53148      0.00000      3.40116         0.005460      0.000051     -0.000098
O	      1.76106      3.05024      3.40116        -0.002714     -0.004750     -0.000066
O	      3.29253      0.13255      1.13371         0.002797     -0.004826      0.000153
O	      3.29253      2.78514      1.13371         0.002718      0.004916      0.000186
O	      0.99532      1.45885      1.13371        -0.005615     -0.000114      0.000183
O	      1.76106      2.78514      7.93602        -0.002728      0.004871      0.000174
O	      4.05827      1.45885      7.93602         0.005542     -0.000124      0.000198
O	      1.76106      0.13255      7.93602        -0.002827     -0.004768      0.000183
O	      0.76573      1.59139      5.66860         0.002739     -0.004759     -0.000115
O	      0.76573      4.24399      5.66860         0.002867      0.004728     -0.000136
O	     -1.53148      2.91769      5.66860        -0.005541      0.000094     -0.000143
O	     -0.76574      4.24399     12.47091        -0.002755      0.004714     -0.000099
O	      1.53148      2.91769     12.47091         0.005439      0.000122     -0.000143
O	     -0.76574      1.59139     12.47091        -0.002615     -0.004764     -0.000127
O	     -1.76106      3.05024     10.20347         0.002722     -0.004762     -0.000041
O	      0.76573      1.32630     10.20347         0.002805      0.004732     -0.000051
O	      3.52211      0.00000     10.20347        -0.005529      0.000030     -0.000055
