ITEM: TIMESTEP
0
ITEM: NUMBER OF ATOMS
30
ITEM: BOX BOUNDS xy xz yz pp pp pp
-2.5622400949999999e+00 5.1244801889999998e+00 -2.5622400949999999e+00
0.0000000000000000e+00 4.4379304480000004e+00 0.0000000000000000e+00
0.0000000000000000e+00 1.3795467525999999e+01 0.0000000000000000e+00
ITEM: ATOMS id type v_vir_xx v_vir_yy v_vir_zz v_vir_xy v_vir_xz v_vir_yz
1 2      -2.725987857569      -2.725976969636      -1.210281316928      -0.000007739577      -0.000001623167       0.000003626464
2 2      -2.725964316636      -2.725989176050      -1.210388876750       0.000011484400       0.000026708514       0.000008721591
3 2      -2.725965998646      -2.725992273332      -1.210319754295       0.000004261717      -0.000000142762       0.000001215792
4 2      -2.726019775627      -2.726015198505      -1.210354756788      -0.000006348519      -0.000018486280      -0.000003384640
5 2      -2.726082995778      -2.726070324520      -1.210518070506       0.000007708180       0.000013587487      -0.000003125274
6 2      -2.726030171508      -2.726022163536      -1.210333223896      -0.000007147846      -0.000020345414      -0.000006957005
7 2      -2.726057921854      -2.726048882797      -1.210523867275       0.000007613087       0.000013899248      -0.000003273412
8 2      -2.726007498003      -2.725997697775      -1.210243667531      -0.000007789063      -0.000020107000      -0.000005447740
9 2      -2.725940066127      -2.725971465914      -1.210283379240       0.000003885583      -0.000000217285      -0.000000335111
10 2      -2.726000059319      -2.725991545678      -1.210290402632      -0.000007746315      -0.000018207459      -0.000001868128
11 2      -2.725988206206      -2.725979443411      -1.210245911638      -0.000007908811      -0.000001773799       0.000002032802
12 2      -2.725965886534      -2.725987514720      -1.210407402948       0.000010666937       0.000027016850       0.000008720191
13 1       2.165534159421       2.978350027731       1.539487453298      -0.703923380761       0.724938655477       0.418543247684
14 1       3.384783097803       1.759130023772       1.539495621151       0.000005501036       0.000001824265      -0.837077515804
15 1       2.165537139734       2.978362010898       1.539502295727       0.703917468765      -0.724942482556       0.418528213042
16 1       2.165493202588       2.978311821566       1.539479788076      -0.703942624470       0.724923829406       0.418534270303
17 1       2.165462998086       2.978326877700       1.539463371744       0.703932031638      -0.724918421546       0.418553133127
18 1       3.384689069144       1.759069438174       1.539472896970       0.000008494410      -0.000004678304      -0.837077500075
19 1       2.165472782320       2.978343690726       1.539480304546      -0.703916528238       0.724940772269       0.418542238793
20 1       3.384748702533       1.759087671219       1.539474042227      -0.000018574378       0.000007000160      -0.837078049854
21 1       2.165505802010       2.978311447479       1.539481360741       0.703935150874      -0.724945894938       0.418532466839
22 1       2.165471548579       2.978364610361       1.539481790825      -0.703907114193       0.724927847102       0.418552338171
23 1       2.165532183374       2.978308046524       1.539483189633       0.703940866129      -0.724949636829       0.418515901015
24 1       3.384757017610       1.759103008201       1.539475870602      -0.000034552945       0.000023278105      -0.837073089445
25 1       2.165492432077       2.978306688975       1.539468746079      -0.703942216595       0.724921763252       0.418535848582
26 1       3.384684608862       1.759070280882       1.539462005855       0.000011066668      -0.000002726289      -0.837077082455
27 1       2.165459249648       2.978322684330       1.539452088624       0.703929856337      -0.724918493639       0.418549589926
28 1       2.165517868367       2.978339196317       1.539474140803      -0.703922204544       0.724946179488       0.418539483932
29 1       2.165522980364       2.978345816888       1.539490082359       0.703919989203      -0.724942386685       0.418536270165
30 1       3.384769748191       1.759115294201       1.539482561818       0.000005761781      -0.000006170651      -0.837081749516
