ITEM: TIMESTEP
0
ITEM: NUMBER OF ATOMS
30
ITEM: BOX BOUNDS xy xz yz pp pp pp
-2.5622400949999999e+00 5.1244801889999998e+00 -2.5622400949999999e+00
0.0000000000000000e+00 4.4379304480000004e+00 0.0000000000000000e+00
0.0000000000000000e+00 1.3795467525999999e+01 0.0000000000000000e+00
ITEM: ATOMS id type c_pe_atom
1 2      -5.577886212135
2 2      -5.577828495388
3 2      -5.577967216282
4 2      -5.577900812664
5 2      -5.577708411707
6 2      -5.577887371893
7 2      -5.577720981253
8 2      -5.577896190861
9 2      -5.577971352639
10 2      -5.577929072272
11 2      -5.577898289600
12 2      -5.577828385257
13 1      -6.168953837245
14 1      -6.168930842096
15 1      -6.168931582292
16 1      -6.168976112797
17 1      -6.168997645632
18 1      -6.168974712373
19 1      -6.169058906182
20 1      -6.169064688119
21 1      -6.169058233327
22 1      -6.169042556947
23 1      -6.169044513411
24 1      -6.169051985379
25 1      -6.168975468386
26 1      -6.168976652694
27 1      -6.168995639691
28 1      -6.168967551830
29 1      -6.168945663919
30 1      -6.168944256387
