30
Config_type=bulk_alpha_phase Weight=1.0 Lattice="5.124480189 0.000000000 0.000000000 -2.562240095 4.437930448 0.000000000 0.000000000 0.000000000 13.795467526" Energy=-254.94471360 Virial="-13.40957 -0.00002 -0.00003 -0.00002 -13.40965 0.00002 -0.00003 0.00002 -11.63839" pbc="T T T" Properties=species:S:1:pos:R:3:forces:R:3
Ga	      0.00000      0.00000      1.98847         0.000034     -0.000013     -0.010307
Ga	     -0.00000      2.95862      0.31078         0.000018      0.000007      0.010160
Ga	      2.56224      1.47931      2.61002         0.000032     -0.000010      0.010226
Ga	     -0.00000      2.95862      4.28772         0.000012      0.000010     -0.010218
Ga	      2.56224      1.47931      6.58695        -0.000010      0.000005     -0.010112
Ga	      0.00000      0.00000      4.90926        -0.000015     -0.000009      0.010381
Ga	     -0.00000      2.95862      7.20851         0.000014     -0.000002      0.010310
Ga	      0.00000      0.00000      8.88620         0.000013      0.000002     -0.010274
Ga	     -0.00000      2.95862     11.18545        -0.000028      0.000010     -0.010271
Ga	      2.56224      1.47931      9.50775        -0.000012     -0.000002      0.010232
Ga	      0.00000      0.00000     11.80700        -0.000036      0.000010      0.010202
Ga	      2.56224      1.47931     13.48469        -0.000013     -0.000007     -0.010257
O	     -0.77637      1.34472      3.44887        -0.001131      0.001778     -0.000049
O	      1.55275      0.00000      3.44887         0.002095      0.000051     -0.000045
O	      1.78587      3.09321      3.44887        -0.001047     -0.001826     -0.000032
O	      3.33862      0.13459      1.14962         0.001023     -0.001778      0.000079
O	      3.33862      2.82403      1.14962         0.000917      0.001843      0.000117
O	      1.00949      1.47931      1.14962        -0.002037     -0.000064      0.000089
O	      1.78587      2.82403      8.04735        -0.001058      0.001823      0.000053
O	      4.11499      1.47931      8.04735         0.002100     -0.000043      0.000073
O	      1.78587      0.13459      8.04735        -0.001144     -0.001785      0.000092
O	      0.77637      1.61390      5.74812         0.001098     -0.001904     -0.000114
O	      0.77637      4.30334      5.74812         0.001185      0.001848     -0.000152
O	     -1.55275      2.95862      5.74812        -0.002184      0.000054     -0.000136
O	     -0.77638      4.30334     12.64585        -0.001029      0.001880     -0.000014
O	      1.55275      2.95862     12.64585         0.002122      0.000019     -0.000024
O	     -0.77638      1.61390     12.64585        -0.001001     -0.001891     -0.000049
O	      3.33861      3.09321     10.34660         0.001074     -0.001821      0.000020
O	      0.77637      1.34472     10.34660         0.001119      0.001797      0.000001
O	      3.57173      0.00000     10.34660        -0.002111      0.000019      0.000018
