160
Config_type=bulk_gamma_phase Weight=1.0 Lattice="8.353845044 0.000000000 0.000000000 0.000000000 8.353845044 0.000000000 0.000000000 0.000000000 25.061535132" Energy=-1360.54887620 Virial="11.51727 0.31829 -19.85354 0.31829 10.99448 -2.17363 -19.85354 -2.17363 15.66715" pbc="T T T" Properties=species:S:1:pos:R:3:forces:R:3
Ga	      1.21239      5.18717     22.03632         0.006340      0.002246     -0.022818
Ga	      5.18624      0.84339     13.64103         0.004013     -0.007804      0.001898
Ga	      7.13723      7.38519      7.37227         0.002832     -0.002548     -0.021378
Ga	      7.26968      7.11460     15.73454        -0.001605     -0.002754      0.007232
Ga	      5.20886      5.23973      0.98098         0.005227      0.000244     -0.001272
Ga	      3.02288      3.19571      7.19379         0.006804     -0.000121      0.022336
Ga	      0.94853      1.04606      1.09124        -0.020356      0.004369     -0.010148
Ga	      5.15764      1.03135      5.23083         0.002511     -0.006775     -0.019104
Ga	      3.17480      2.95665     15.61181        -0.014790     -0.014377     -0.010878
Ga	      5.37158      1.11295     21.86294         0.014779     -0.002746     -0.008689
Ga	      3.12740      7.23219     11.48747         0.008676      0.002336      0.001213
Ga	      7.40177      3.18904     19.76492         0.004649     -0.009222      0.007122
Ga	      1.01452      5.08471     13.45568         0.020349     -0.024068      0.002232
Ga	      7.30998      3.21369      3.19828         0.006705     -0.011428      0.012546
Ga	      5.08740      5.32481      9.34744         0.001163     -0.009410      0.016646
Ga	      7.33967      7.42122     24.04857         0.020597      0.002875     -0.005067
Ga	      3.18829      7.43328     19.88576        -0.009370      0.012662      0.025829
Ga	      0.91111      1.07502      9.49609        -0.010600     -0.011465     -0.005625
Ga	      3.22038      7.40786      3.08415        -0.004561     -0.005663      0.000263
Ga	      1.17372      1.03387     17.78135         0.014389     -0.011274     -0.018453
Ga	      3.91997      0.18978      8.36611        -0.000716      0.013640      0.005429
Ga	      6.12479      6.09887     12.50784        -0.016919     -0.001821      0.023774
Ga	      2.15692      2.13192     20.90033        -0.004330     -0.001850     -0.006149
Ga	      6.39026      6.27929     20.85076         0.019693      0.018042     -0.009106
Ga	      1.95861      6.38130      8.26432        -0.012752      0.015454     -0.012050
Ga	      8.30627      2.05581      6.22829         0.022831      0.004585      0.010102
Ga	      1.98709      2.08940      4.21167         0.001586     -0.007482      0.021388
Ga	      0.04787      2.00812     14.58053         0.003111     -0.007534     -0.016925
Ga	      0.16717      6.18999     18.75199        -0.000510      0.007591      0.017344
Ga	      6.25822      0.05657      2.09877        -0.008951     -0.020723      0.005785
Ga	      6.08436      0.07549     10.50524        -0.005405     -0.009037     -0.006177
Ga	      4.16899      2.19148     18.74902        -0.013544      0.004261      0.011557
Ga	      6.39497      8.31210     18.80131         0.022573      0.017370     -0.011939
Ga	      6.33964      2.04861     16.69098        -0.006898      0.000480      0.003123
Ga	      0.15832      2.06437     23.02650        -0.000767      0.004785     -0.001938
Ga	      2.02774      8.13906     14.71380         0.012951     -0.003543      0.002352
Ga	      4.00404      6.01145     14.62701         0.007556      0.007009     -0.001537
Ga	      6.23751      4.19703      6.28791         0.010236     -0.008906     -0.011854
Ga	      4.19841      6.37296     23.01191         0.010489      0.003078      0.002018
Ga	      0.09694      4.17776     16.70639         0.012614     -0.012956     -0.000673
Ga	      2.08279      4.23065      2.08690         0.000338     -0.022987      0.007513
Ga	      4.13038      4.29297     20.83273         0.005745      0.011142      0.016251
Ga	      4.13465      8.16042     16.76836        -0.003991     -0.003020      0.012222
Ga	      6.28651      4.23403     22.92957        -0.018560     -0.017614     -0.012080
Ga	      8.28964      6.19151     10.42309         0.023049      0.007502     -0.003628
Ga	      8.33756      8.28693     12.55381         0.002957      0.018250     -0.026158
Ga	      0.03283      4.26534      0.03832         0.011634      0.003495     -0.005857
Ga	      6.20471      4.05296     14.59145         0.013893      0.004204     -0.001273
Ga	      4.12541      4.18269      4.14431         0.004264      0.009464     -0.027540
Ga	      2.12174      2.03119     12.45676         0.008617      0.012059      0.001928
Ga	      2.09029      4.10066     10.45516         0.002409      0.006060      0.002710
Ga	      0.04123      6.41380      2.19225        -0.011023     -0.000552     -0.013690
Ga	      0.20335      8.31293     20.98648        -0.007646      0.006116     -0.005371
Ga	      4.11429      2.03707      1.97962         0.000370      0.018129     -0.002109
Ga	      6.18823      2.05305     25.01609         0.009083     -0.001685      0.003951
Ga	      8.32919      4.13405      8.35001        -0.017400     -0.000965      0.007529
Ga	      6.07149      2.16231      8.45672        -0.007557     -0.009451     -0.014730
Ga	      4.00980      6.40768      6.20498         0.006509      0.017279      0.013488
Ga	      6.32222      6.40524      4.22848        -0.014835     -0.010358     -0.003655
Ga	      2.17438      6.36908     25.02710        -0.009130      0.022148      0.011400
Ga	      5.15663      3.11479     11.53016        -0.011160     -0.009500     -0.018591
Ga	      3.16684      1.07642     23.99599        -0.010448     -0.000394      0.012925
Ga	      3.16534      5.15471     17.74687         0.002856      0.003737     -0.003345
Ga	      0.98617      7.37502      5.21492        -0.006802     -0.000791      0.017622
O	      2.11452      2.14084      2.11593         0.005702     -0.002166      0.005300
O	      6.12981      6.21759      6.22915        -0.000569     -0.000331     -0.002947
O	      4.23211      8.29409      6.40691        -0.000087      0.002884      0.006419
O	      4.29621      0.12823      2.07182        -0.002965      0.004828     -0.000291
O	      8.23744      6.33290      4.11361        -0.007665     -0.006875     -0.003774
O	      0.02674      2.16437      4.25888        -0.000615     -0.000355      0.001048
O	      6.18615      4.16021      8.32409        -0.008545      0.004009     -0.004229
O	      1.91518      4.42185      0.21944        -0.000433      0.005814      0.001418
O	      8.34595      4.33915      2.06994        -0.000245      0.001952     -0.012957
O	      8.11087      4.01202      6.48521        -0.007369     -0.004455     -0.001505
O	      4.27183      2.11636      0.05247        -0.001038      0.004473      0.001572
O	      4.00594      6.36978      8.22295         0.001670     -0.008072     -0.001919
O	      2.10657      0.08198      4.15896        -0.001080     -0.012285     -0.008172
O	      6.13559      8.30284      4.08003        -0.010742      0.000306      0.006854
O	      2.09242      6.36296      6.33403        -0.001883     -0.007414     -0.000146
O	      6.20583      2.12050      2.02626         0.003445     -0.000679      0.003829
O	      4.16994      4.11367      2.10579        -0.003377      0.005276     -0.001817
O	      4.21072      4.31799      6.15813        -0.003325      0.002061      0.009536
O	      8.15335      2.09715      8.33538         0.003336     -0.000428     -0.010757
O	      0.04497      6.28753      0.09113        -0.004301     -0.003632     -0.010683
O	      8.21288      0.06594      6.28500        -0.001148     -0.010425     -0.008793
O	      8.22015      8.32683      2.10337         0.006683      0.000353     -0.004831
O	      4.22782      6.21715      4.21770        -0.002019      0.000160      0.002736
O	      4.11145      2.16352      4.09597        -0.009479      0.000932     -0.004496
O	      6.23618      2.16048      6.33629        -0.002512      0.001568      0.002075
O	      2.04866      6.31572      2.05775         0.003641      0.006944     -0.000987
O	      2.24424      4.03695      3.95296         0.006891     -0.002842      0.000625
O	      6.14221      4.30976      4.25952        -0.001755     -0.005699     -0.004227
O	      6.36097      0.15242      0.11321         0.008500      0.002271     -0.005549
O	      2.02555      8.30514      8.49589        -0.002401      0.012907      0.003991
O	      6.30585      6.33820      2.15170        -0.001366     -0.007418     -0.001627
O	      1.91412      2.14943      6.15399         0.000928      0.003371      0.006994
O	      2.02016      2.14346     10.51142        -0.008926      0.004849     -0.003041
O	      6.18400      6.10571     14.54745         0.008927     -0.004977      0.006935
O	      4.09625      8.16308     14.75743        -0.001184      0.008846      0.005156
O	      4.19696      8.19412     10.31595         0.001568     -0.000482     -0.009024
O	      8.20921      6.27075     12.44054         0.001727      0.000724      0.002194
O	      0.16438      1.80440     12.71393         0.005115     -0.001928      0.011362
O	      6.51925      3.90979     16.47662         0.012860     -0.003102      0.009364
O	      2.01984      4.30262      8.36692        -0.000548      0.001309     -0.000178
O	      0.12351      4.32138     10.21657        -0.007716      0.004105     -0.007461
O	      8.35273      4.00817     14.63578         0.005030     -0.006006     -0.010816
O	      4.14372      2.08985      8.21185        -0.008653      0.000151     -0.012150
O	      4.12853      6.26116     16.58943        -0.003460     -0.001203     -0.006370
O	      2.01816      8.30954     12.59350        -0.003014     -0.008017      0.000752
O	      6.31287      8.18978     12.48825         0.001863     -0.001358     -0.002720
O	      2.09228      6.22892     14.47431         0.002865     -0.011311     -0.008580
O	      6.12273      1.99785     10.37859        -0.007184      0.006218      0.001331
O	      4.09365      4.22865     10.44977         0.008885      0.005455      0.001082
O	      4.26527      4.11446     14.68914        -0.006147     -0.011283      0.000953
O	      0.02593      2.02849     16.60721         0.003903      0.001057      0.008994
O	      8.30698      6.27228      8.38289        -0.011298      0.002908      0.002059
O	      0.03361      8.24232     14.62039        -0.002755     -0.005572      0.003464
O	      8.16897      8.22228     10.53744         0.001694      0.006635     -0.007433
O	      4.23885      6.32346     12.67418        -0.002342     -0.000881      0.005771
O	      4.13564      1.94126     12.57826        -0.003626     -0.008216      0.003851
O	      6.35400      1.96015     14.65039        -0.003834      0.001612      0.005063
O	      1.98071      6.18515     10.37197         0.018154      0.005049     -0.003768
O	      2.05238      3.99529     12.40221        -0.016813     -0.001600      0.003170
O	      6.21058      4.18397     12.64647        -0.002644     -0.001062     -0.003269
O	      6.08845      0.10849      8.48932        -0.000170     -0.009471      0.000276
O	      2.21951      0.03866     16.62491        -0.006463      0.011370      0.001916
O	      6.27250      6.30647     10.49050        -0.003919      0.000809     -0.000319
O	      2.08182      1.86770     14.53778         0.005002      0.000015      0.005840
O	      2.26540      2.00703     18.91398         0.002050     -0.000577     -0.003095
O	      6.31736      6.29039     22.88173        -0.001178      0.007447      0.005414
O	      4.31281      0.03192     22.93235        -0.002295      0.018740      0.011230
O	      4.36131      0.07207     18.73905        -0.005016     -0.008457     -0.001398
O	      0.10674      6.32129     20.90484        -0.000754      0.002147      0.004605
O	      0.10652      2.06945     20.94633        -0.013931     -0.001168      0.001235
O	      6.37580      4.14865     24.97282         0.002131      0.004189      0.005972
O	      2.09788      4.02674     16.68674         0.001090     -0.000097      0.005056
O	      0.07433      4.23235     18.66675         0.000766      0.000098      0.002187
O	      8.31275      4.13781     23.07063        -0.010694     -0.009664     -0.005388
O	      4.32698      1.93087     16.77333        -0.006389     -0.006074     -0.005977
O	      4.14205      6.28603     24.97021         0.002337     -0.006362      0.006495
O	      2.09716      0.14528     20.89655        -0.000744     -0.001333      0.000352
O	      6.46652      0.00658     20.81400        -0.003239      0.003681     -0.000520
O	      2.24095      6.30659     23.08553        -0.001775      0.012845     -0.002553
O	      6.28076      1.98963     18.71881        -0.001634      0.000676      0.003179
O	      4.22079      4.10992     18.89721         0.000863     -0.011099      0.001526
O	      4.43084      4.44119     22.72513         0.012837      0.005163     -0.010559
O	      8.28604      2.23525     25.02067         0.008649      0.008357      0.002119
O	      0.04149      6.12464     16.79104         0.006610     -0.005938      0.003288
O	      8.28568      0.15500     22.88702        -0.003428      0.006049      0.001664
O	      0.05994      8.31569     18.88441         0.004799      0.000589     -0.008037
O	      4.34668      6.33319     20.90695        -0.002112      0.000496      0.010058
O	      4.23840      2.19352     20.78807         0.005378     -0.004054      0.007583
O	      6.39772      2.23433     23.02097        -0.001372      0.007291      0.000217
O	      2.14774      6.29964     18.83159        -0.001125      0.000586      0.004046
O	      2.21279      4.08855     20.94654         0.017712      0.006741      0.001234
O	      6.34407      4.27750     20.90309        -0.002771     -0.008759      0.007769
O	      6.23009      0.00781     16.77920        -0.006053     -0.005256     -0.002031
O	      2.06441      0.01560      0.01829        -0.009155      0.014401      0.006825
O	      6.58224      6.43650     18.98336        -0.005254      0.000993      0.011560
O	      2.05650      2.08279     22.88441        -0.012851      0.006881      0.000936
