ITEM: TIMESTEP
0
ITEM: NUMBER OF ATOMS
20
ITEM: BOX BOUNDS xy xz yz pp pp pp
-1.3902624638979999e+00 1.2460447112405999e+01 0.0000000000000000e+00
0.0000000000000000e+00 3.0857209330000002e+00 -1.3902624638979999e+00
0.0000000000000000e+00 5.7126468587139998e+00 0.0000000000000000e+00
ITEM: ATOMS id type c_pe_atom
1 2      -4.999593536116
2 2      -4.999596637106
3 2      -4.494225985592
4 2      -4.494235282042
5 2      -4.999595218689
6 2      -4.999593847249
7 2      -4.494234838039
8 2      -4.494220812719
9 1     -11.150712849008
10 1     -11.150710573872
11 1     -10.959608773499
12 1     -10.959611434325
13 1     -11.053594782557
14 1     -11.053611580137
15 1     -11.150720238708
16 1     -11.150713562216
17 1     -10.959601736048
18 1     -10.959601134030
19 1     -11.053603763784
20 1     -11.053604927555
