ITEM: TIMESTEP
0
ITEM: NUMBER OF ATOMS
40
ITEM: BOX BOUNDS pp pp pp
0.0000000000000000e+00 8.8549439820000000e+00
0.0000000000000000e+00 5.1565118529999996e+00
0.0000000000000000e+00 9.4750502510000008e+00
ITEM: ATOMS id type c_pe_atom
1 2      -4.871136956157
2 2      -4.871130881277
3 2      -4.510211929443
4 2      -4.510212402256
5 2      -4.982078828541
6 2      -4.832573305796
7 2      -4.832571240639
8 2      -4.982089936380
9 2      -4.510151446527
10 2      -4.510148448539
11 2      -4.869990429109
12 2      -4.870002259908
13 2      -4.983278379989
14 2      -4.832672201175
15 2      -4.832669135327
16 2      -4.983283729104
17 1     -11.130050967889
18 1     -11.132508109279
19 1     -11.063776807601
20 1     -10.530703461141
21 1     -11.130058190891
22 1     -11.041932833570
23 1     -11.063763996674
24 1     -10.530681379643
25 1     -11.041647109464
26 1     -11.129815738432
27 1     -10.530012786467
28 1     -11.064091362256
29 1     -11.133021036832
30 1     -11.129806031130
31 1     -11.007247083130
32 1     -11.007038282766
33 1     -11.133023160425
34 1     -11.041934345523
35 1     -11.007243793747
36 1     -11.007040709627
37 1     -11.041644155429
38 1     -11.132493068615
39 1     -10.529994093786
40 1     -11.064092587296
