ITEM: TIMESTEP
0
ITEM: NUMBER OF ATOMS
80
ITEM: BOX BOUNDS pp pp pp
0.0000000000000000e+00 9.2791913309999998e+00
0.0000000000000000e+00 9.2791913309999998e+00
0.0000000000000000e+00 9.2791913309999998e+00
ITEM: ATOMS id type c_pe_atom
1 2      -5.061945246801
2 2      -4.968365004370
3 2      -4.968356398272
4 2      -4.968363293497
5 2      -4.968356398272
6 2      -4.968360358569
7 2      -4.968363293497
8 2      -5.061945246801
9 2      -5.061946547745
10 2      -5.061945246801
11 2      -4.968360358569
12 2      -4.968363293497
13 2      -4.968365004370
14 2      -4.968360358569
15 2      -4.968365004370
16 2      -4.968356398272
17 2      -5.061943946060
18 2      -4.968357550690
19 2      -4.968365655686
20 2      -4.968359261677
21 2      -4.968365655686
22 2      -4.968361695676
23 2      -4.968359261677
24 2      -5.061943946060
25 2      -5.061942645512
26 2      -5.061943946060
27 2      -4.968361695676
28 2      -4.968359261677
29 2      -4.968357550690
30 2      -4.968361695676
31 2      -4.968357550690
32 2      -4.968365655686
33 1     -10.816566607634
34 1     -10.816564263104
35 1     -10.816550457653
36 1     -10.816575964038
37 1     -10.816552796166
38 1     -10.816572996842
39 1     -10.816550457653
40 1     -10.816552796166
41 1     -10.816572996842
42 1     -10.816580188856
43 1     -10.816550457653
44 1     -10.816566607634
45 1     -10.816587838524
46 1     -10.816552796166
47 1     -10.816564263104
48 1     -10.816575964038
49 1     -10.816580188856
50 1     -10.816587838524
51 1     -10.816580188856
52 1     -10.816564263104
53 1     -10.816566607634
54 1     -10.816587838524
55 1     -10.816575964038
56 1     -10.816572996842
57 1     -10.816579109272
58 1     -10.816570865921
59 1     -10.816593857247
60 1     -10.816562447372
61 1     -10.816590297187
62 1     -10.816576002438
63 1     -10.816593857247
64 1     -10.816590297187
65 1     -10.816576002438
66 1     -10.816560844807
67 1     -10.816593857247
68 1     -10.816579109272
69 1     -10.816551971885
70 1     -10.816590297187
71 1     -10.816570865921
72 1     -10.816562447372
73 1     -10.816560844807
74 1     -10.816551971885
75 1     -10.816560844807
76 1     -10.816570865921
77 1     -10.816579109272
78 1     -10.816551971885
79 1     -10.816562447372
80 1     -10.816576002438
