ITEM: TIMESTEP
0
ITEM: NUMBER OF ATOMS
80
ITEM: BOX BOUNDS pp pp pp
0.0000000000000000e+00 9.2791913309999998e+00
0.0000000000000000e+00 9.2791913309999998e+00
0.0000000000000000e+00 9.2791913309999998e+00
ITEM: ATOMS id type x y z fx fy fz
1 2       6.959390000000       2.319800000000       2.319800000000       0.000227023157      -0.000194044026      -0.000144763646
2 2       6.959390000000       4.311140000000       4.639600000000       0.000097698656      -0.075636079756      -0.000055455054
3 2       0.000000000000       6.959390000000       0.328460000000       0.000012636952       0.000122505207       0.075580435276
4 2       0.000000000000       2.319800000000       4.311140000000       0.000008794279      -0.000091432233      -0.075693811748
5 2       0.328460000000       0.000000000000       6.959390000000       0.075580435276       0.000012636952       0.000122505207
6 2       0.328460000000       4.639600000000       2.319800000000       0.075532067228      -0.000059295269      -0.000066620724
7 2       2.319800000000       4.311140000000       0.000000000000      -0.000091432233      -0.075693811748       0.000008794279
8 2       2.319800000000       6.959390000000       2.319800000000      -0.000144763646       0.000227023157      -0.000194044026
9 2       2.319800000000       2.319800000000       2.319800000000      -0.000168713732      -0.000168713732      -0.000168713732
10 2       2.319800000000       2.319800000000       6.959390000000      -0.000194044026      -0.000144763646       0.000227023157
11 2       2.319800000000       0.328460000000       4.639600000000      -0.000066620724       0.075532067228      -0.000059295269
12 2       4.311140000000       0.000000000000       2.319800000000      -0.075693811748       0.000008794279      -0.000091432233
13 2       4.311140000000       4.639600000000       6.959390000000      -0.075636079756      -0.000055455054       0.000097698656
14 2       4.639600000000       2.319800000000       0.328460000000      -0.000059295269      -0.000066620724       0.075532067228
15 2       4.639600000000       6.959390000000       4.311140000000      -0.000055455054       0.000097698656      -0.075636079756
16 2       6.959390000000       0.328460000000       0.000000000000       0.000122505207       0.075580435276       0.000012636952
17 2       2.319800000000       6.959390000000       6.959390000000      -0.000205821264       0.000233315561       0.000196208415
18 2       2.319800000000       8.950730000000       0.000000000000      -0.000098431899      -0.075572364695      -0.000003703974
19 2       4.639600000000       2.319800000000       4.968050000000      -0.000071795641      -0.000123247491       0.075582720175
20 2       4.639600000000       6.959390000000       8.950730000000      -0.000075635738       0.000154320146      -0.075514630310
21 2       4.968050000000       4.639600000000       2.319800000000       0.075582720175      -0.000071795641      -0.000123247491
22 2       4.968050000000       0.000000000000       6.959390000000       0.075631086281      -0.000007546686       0.000129510061
23 2       6.959390000000       8.950730000000       4.639600000000       0.000154320146      -0.075514630310      -0.000075635738
24 2       6.959390000000       2.319800000000       6.959390000000       0.000196208415      -0.000205821264       0.000233315561
25 2       6.959390000000       6.959390000000       6.959390000000       0.000177743228       0.000177743228       0.000177743228
26 2       6.959390000000       6.959390000000       2.319800000000       0.000233315561       0.000196208415      -0.000205821264
27 2       6.959390000000       4.968050000000       0.000000000000       0.000129510061       0.075631086281      -0.000007546686
28 2       8.950730000000       4.639600000000       6.959390000000      -0.075514630310      -0.000075635738       0.000154320146
29 2       8.950730000000       0.000000000000       2.319800000000      -0.075572364695      -0.000003703974      -0.000098431899
30 2       0.000000000000       6.959390000000       4.968050000000      -0.000007546686       0.000129510061       0.075631086281
31 2       0.000000000000       2.319800000000       8.950730000000      -0.000003703974      -0.000098431899      -0.075572364695
32 2       2.319800000000       4.968050000000       4.639600000000      -0.000123247491       0.075582720175      -0.000071795641
33 1       8.200100000000       5.655460000000       1.462250000000      -0.164597321991       0.062417222996       0.010364444872
34 1       8.200100000000       3.623730000000       3.177340000000      -0.164573309164      -0.062369914052      -0.010228141080
35 1       8.263330000000       1.462250000000       1.079090000000      -0.062544650405       0.010387879195       0.164626142042
36 1       8.263330000000       3.177340000000       5.718690000000      -0.062499554897      -0.010195915482       0.164518301084
37 1       1.015860000000       3.177340000000       1.079090000000       0.062528191251      -0.010226466145       0.164642392480
38 1       1.015860000000       1.462250000000       5.718690000000       0.062498321775       0.010349862615       0.164512169934
39 1       1.079090000000       8.263330000000       1.462250000000       0.164626142042      -0.062544650405       0.010387879195
40 1       1.079090000000       1.015860000000       3.177340000000       0.164642392480       0.062528191251      -0.010226466145
41 1       1.462250000000       5.718690000000       1.015860000000       0.010349862615       0.164512169934       0.062498321775
42 1       1.462250000000       3.560500000000       3.623730000000       0.010355689584      -0.164414373498      -0.062336279468
43 1       1.462250000000       1.079090000000       8.263330000000       0.010387879195       0.164626142042      -0.062544650405
44 1       1.462250000000       8.200100000000       5.655460000000       0.010364444872      -0.164597321991       0.062417222996
45 1       3.177340000000       3.560500000000       5.655460000000      -0.010176633176      -0.164460769894       0.062368360446
46 1       3.177340000000       1.079090000000       1.015860000000      -0.010226466145       0.164642392480       0.062528191251
47 1       3.177340000000       8.200100000000       3.623730000000      -0.010228141080      -0.164573309164      -0.062369914052
48 1       3.177340000000       5.718690000000       8.263330000000      -0.010195915482       0.164518301084      -0.062499554897
49 1       3.560500000000       3.623730000000       1.462250000000      -0.164414373498      -0.062336279468       0.010355689584
50 1       3.560500000000       5.655460000000       3.177340000000      -0.164460769894       0.062368360446      -0.010176633176
51 1       3.623730000000       1.462250000000       3.560500000000      -0.062336279468       0.010355689584      -0.164414373498
52 1       3.623730000000       3.177340000000       8.200100000000      -0.062369914052      -0.010228141080      -0.164573309164
53 1       5.655460000000       1.462250000000       8.200100000000       0.062417222996       0.010364444872      -0.164597321991
54 1       5.655460000000       3.177340000000       3.560500000000       0.062368360446      -0.010176633176      -0.164460769894
55 1       5.718690000000       8.263330000000       3.177340000000       0.164518301084      -0.062499554897      -0.010195915482
56 1       5.718690000000       1.015860000000       1.462250000000       0.164512169934       0.062498321775       0.010349862615
57 1       3.560500000000       1.015860000000       6.101850000000      -0.164511163325       0.062485320826       0.010199569143
58 1       3.560500000000       8.263330000000       7.816940000000      -0.164490452494      -0.062501507980      -0.010369629022
59 1       3.623730000000       6.101850000000       5.718690000000      -0.062333233719       0.010195695102       0.164444210079
60 1       3.623730000000       7.816940000000       1.079090000000      -0.062378059281      -0.010396304348       0.164547588524
61 1       5.655460000000       7.816940000000       5.718690000000       0.062380271503      -0.010340643189       0.164463762681
62 1       5.655460000000       6.101850000000       1.079090000000       0.062410410122       0.010208601641       0.164598447150
63 1       5.718690000000       3.623730000000       6.101850000000       0.164444210079      -0.062333233719       0.010195695102
64 1       5.718690000000       5.655460000000       7.816940000000       0.164463762681       0.062380271503      -0.010340643189
65 1       6.101850000000       1.079090000000       5.655460000000       0.010208601641       0.164598447150       0.062410410122
66 1       6.101850000000       8.200100000000       8.263330000000       0.010233435238      -0.164653848530      -0.062535415015
67 1       6.101850000000       5.718690000000       3.623730000000       0.010195695102       0.164444210079      -0.062333233719
68 1       6.101850000000       3.560500000000       1.015860000000       0.010199569143      -0.164511163325       0.062485320826
69 1       7.816940000000       8.200100000000       1.015860000000      -0.010396031116      -0.164643254928       0.062533911177
70 1       7.816940000000       5.718690000000       5.655460000000      -0.010340643189       0.164463762681       0.062380271503
71 1       7.816940000000       3.560500000000       8.263330000000      -0.010369629022      -0.164490452494      -0.062501507980
72 1       7.816940000000       1.079090000000       3.623730000000      -0.010396304348       0.164547588524      -0.062378059281
73 1       8.200100000000       8.263330000000       6.101850000000      -0.164653848530      -0.062535415015       0.010233435238
74 1       8.200100000000       1.015860000000       7.816940000000      -0.164643254928       0.062533911177      -0.010396031116
75 1       8.263330000000       6.101850000000       8.200100000000      -0.062535415015       0.010233435238      -0.164653848530
76 1       8.263330000000       7.816940000000       3.560500000000      -0.062501507980      -0.010369629022      -0.164490452494
77 1       1.015860000000       6.101850000000       3.560500000000       0.062485320826       0.010199569143      -0.164511163325
78 1       1.015860000000       7.816940000000       8.200100000000       0.062533911177      -0.010396031116      -0.164643254928
79 1       1.079090000000       3.623730000000       7.816940000000       0.164547588524      -0.062378059281      -0.010396304348
80 1       1.079090000000       5.655460000000       6.101850000000       0.164598447150       0.062410410122       0.010208601641
