ITEM: TIMESTEP
0
ITEM: NUMBER OF ATOMS
80
ITEM: BOX BOUNDS pp pp pp
0.0000000000000000e+00 9.5050540009999995e+00
0.0000000000000000e+00 9.5050540009999995e+00
0.0000000000000000e+00 9.5050540009999995e+00
ITEM: ATOMS id type c_pe_atom
1 2      -5.401055414182
2 2      -5.258423797208
3 2      -5.258418471573
4 2      -5.258426252798
5 2      -5.258418471573
6 2      -5.258423240870
7 2      -5.258426252798
8 2      -5.401055414182
9 2      -5.401059957398
10 2      -5.401055414182
11 2      -5.258423240870
12 2      -5.258426252798
13 2      -5.258423797208
14 2      -5.258423240870
15 2      -5.258423797208
16 2      -5.258418471573
17 2      -5.401050871089
18 2      -5.258419335599
19 2      -5.258421852133
20 2      -5.258416880085
21 2      -5.258421852133
22 2      -5.258417082889
23 2      -5.258416880085
24 2      -5.401050871089
25 2      -5.401046327881
26 2      -5.401050871089
27 2      -5.258417082889
28 2      -5.258416880085
29 2      -5.258419335599
30 2      -5.258417082889
31 2      -5.258419335599
32 2      -5.258421852133
33 1     -10.625162491616
34 1     -10.625141365428
35 1     -10.625164724424
36 1     -10.625153480121
37 1     -10.625154717354
38 1     -10.625164639159
39 1     -10.625164724424
40 1     -10.625154717354
41 1     -10.625164639159
42 1     -10.625143316535
43 1     -10.625164724424
44 1     -10.625162491616
45 1     -10.625143276150
46 1     -10.625154717354
47 1     -10.625141365428
48 1     -10.625153480121
49 1     -10.625143316535
50 1     -10.625143276150
51 1     -10.625143316535
52 1     -10.625141365428
53 1     -10.625162491616
54 1     -10.625143276150
55 1     -10.625153480121
56 1     -10.625164639159
57 1     -10.625156781490
58 1     -10.625151882892
59 1     -10.625156528003
60 1     -10.625152866725
61 1     -10.625162748396
62 1     -10.625167732155
63 1     -10.625156528003
64 1     -10.625162748396
65 1     -10.625167732155
66 1     -10.625164837699
67 1     -10.625156528003
68 1     -10.625156781490
69 1     -10.625161091100
70 1     -10.625162748396
71 1     -10.625151882892
72 1     -10.625152866725
73 1     -10.625164837699
74 1     -10.625161091100
75 1     -10.625164837699
76 1     -10.625151882892
77 1     -10.625156781490
78 1     -10.625161091100
79 1     -10.625152866725
80 1     -10.625167732155
