ITEM: TIMESTEP
0
ITEM: NUMBER OF ATOMS
80
ITEM: BOX BOUNDS pp pp pp
0.0000000000000000e+00 9.5050540009999995e+00
0.0000000000000000e+00 9.5050540009999995e+00
0.0000000000000000e+00 9.5050540009999995e+00
ITEM: ATOMS id type x y z fx fy fz
1 2       7.128790000000       2.376260000000       2.376260000000      -0.000004680864       0.000064177363       0.000069128667
2 2       7.128790000000       4.409310000000       4.752530000000      -0.000010076382       0.121680188291      -0.000042857126
3 2       0.000000000000       7.128790000000       0.343220000000      -0.000035371915      -0.000012095064      -0.121783190512
4 2       0.000000000000       2.376260000000       4.409310000000      -0.000064974160       0.000098699484       0.121723978196
5 2       0.343220000000       0.000000000000       7.128790000000      -0.121783190512      -0.000035371915      -0.000012095064
6 2       0.343220000000       4.752530000000       2.376260000000      -0.121800227740      -0.000072459946       0.000096681453
7 2       2.376260000000       4.409310000000       0.000000000000       0.000098699484       0.121723978196      -0.000064974160
8 2       2.376260000000       7.128790000000       2.376260000000       0.000069128667      -0.000004680864       0.000064177363
9 2       2.376260000000       2.376260000000       2.376260000000       0.000042643083       0.000042643083       0.000042643083
10 2       2.376260000000       2.376260000000       7.128790000000       0.000064177363       0.000069128667      -0.000004680864
11 2       2.376260000000       0.343220000000       4.752530000000       0.000096681453      -0.121800227740      -0.000072459946
12 2       4.409310000000       0.000000000000       2.376260000000       0.121723978196      -0.000064974160       0.000098699484
13 2       4.409310000000       4.752530000000       7.128790000000       0.121680188291      -0.000042857126      -0.000010076382
14 2       4.752530000000       2.376260000000       0.343220000000      -0.000072459946       0.000096681453      -0.121800227740
15 2       4.752530000000       7.128790000000       4.409310000000      -0.000042857126      -0.000010076382       0.121680188291
16 2       7.128790000000       0.343220000000       0.000000000000      -0.000012095064      -0.121783190512      -0.000035371915
17 2       2.376260000000       7.128790000000       7.128790000000       0.000055128487       0.000001505878       0.000013990954
18 2       2.376260000000       9.161830000000       0.000000000000       0.000071070280       0.121782098490      -0.000009466307
19 2       4.752530000000       2.376260000000       5.095750000000      -0.000016952069       0.000073089223      -0.121874151672
20 2       4.752530000000       7.128790000000       9.161830000000      -0.000046553728       0.000013515114       0.121738307946
21 2       5.095750000000       4.752530000000       2.376260000000      -0.121874151672      -0.000016952069       0.000073089223
22 2       5.095750000000       0.000000000000       7.128790000000      -0.121857113598      -0.000039068128       0.000015533996
23 2       7.128790000000       9.161830000000       4.752530000000       0.000013515114       0.121738307946      -0.000046553728
24 2       7.128790000000       2.376260000000       7.128790000000       0.000013990954       0.000055128487       0.000001505878
25 2       7.128790000000       7.128790000000       7.128790000000      -0.000009633878      -0.000009633878      -0.000009633878
26 2       7.128790000000       7.128790000000       2.376260000000       0.000001505878       0.000013990954       0.000055128487
27 2       7.128790000000       5.095750000000       0.000000000000       0.000015533996      -0.121857113598      -0.000039068128
28 2       9.161830000000       4.752530000000       7.128790000000       0.121738307946      -0.000046553728       0.000013515114
29 2       9.161830000000       0.000000000000       2.376260000000       0.121782098490      -0.000009466307       0.000071070280
30 2       0.000000000000       7.128790000000       5.095750000000      -0.000039068128       0.000015533996      -0.121857113598
31 2       0.000000000000       2.376260000000       9.161830000000      -0.000009466307       0.000071070280       0.121782098490
32 2       2.376260000000       5.095750000000       4.752530000000       0.000073089223      -0.121874151672      -0.000016952069
33 1       8.426320000000       5.821780000000       1.506870000000       0.013259711830      -0.112318113759       0.012371588898
34 1       8.426320000000       3.683280000000       3.245660000000       0.013300829060       0.112289534157      -0.012450116262
35 1       8.435800000000       1.506870000000       1.078730000000       0.112344955591       0.012385996771      -0.013234691677
36 1       8.435800000000       3.245660000000       5.831260000000       0.112347252947      -0.012452928074      -0.013262751430
37 1       1.069250000000       3.245660000000       1.078730000000      -0.112343179864      -0.012459640483      -0.013265085025
38 1       1.069250000000       1.506870000000       5.831260000000      -0.112307908594       0.012374413799      -0.013212540622
39 1       1.078730000000       8.435800000000       1.506870000000      -0.013234691677       0.112344955591       0.012385996771
40 1       1.078730000000       1.069250000000       3.245660000000      -0.013265085025      -0.112343179864      -0.012459640483
41 1       1.506870000000       5.831260000000       1.069250000000       0.012374413799      -0.013212540622      -0.112307908594
42 1       1.506870000000       3.673790000000       3.683280000000       0.012393415877       0.013302874359       0.112299476631
43 1       1.506870000000       1.078730000000       8.435800000000       0.012385996771      -0.013234691677       0.112344955591
44 1       1.506870000000       8.426320000000       5.821780000000       0.012371588898       0.013259711830      -0.112318113759
45 1       3.245660000000       3.673790000000       5.821780000000      -0.012467048134       0.013342359706      -0.112365624194
46 1       3.245660000000       1.078730000000       1.069250000000      -0.012459640483      -0.013265085025      -0.112343179864
47 1       3.245660000000       8.426320000000       3.683280000000      -0.012450116262       0.013300829060       0.112289534157
48 1       3.245660000000       5.831260000000       8.435800000000      -0.012452928074      -0.013262751430       0.112347252947
49 1       3.673790000000       3.683280000000       1.506870000000       0.013302874359       0.112299476631       0.012393415877
50 1       3.673790000000       5.821780000000       3.245660000000       0.013342359706      -0.112365624194      -0.012467048134
51 1       3.683280000000       1.506870000000       3.673790000000       0.112299476631       0.012393415877       0.013302874359
52 1       3.683280000000       3.245660000000       8.426320000000       0.112289534157      -0.012450116262       0.013300829060
53 1       5.821780000000       1.506870000000       8.426320000000      -0.112318113759       0.012371588898       0.013259711830
54 1       5.821780000000       3.245660000000       3.673790000000      -0.112365624194      -0.012467048134       0.013342359706
55 1       5.831260000000       8.435800000000       3.245660000000      -0.013262751430       0.112347252947      -0.012452928074
56 1       5.831260000000       1.069250000000       1.506870000000      -0.013212540622      -0.112307908594       0.012374413799
57 1       3.673790000000       1.069250000000       6.259400000000       0.013314568009      -0.112333754191       0.012385373257
58 1       3.673790000000       8.435800000000       7.998180000000       0.013323121909       0.112363025983      -0.012391270738
59 1       3.683280000000       6.259400000000       5.831260000000       0.112233076689       0.012343922571      -0.013209184058
60 1       3.683280000000       7.998180000000       1.078730000000       0.112258275385      -0.012356532822      -0.013220071685
61 1       5.821780000000       7.998180000000       5.831260000000      -0.112289150489      -0.012344937089      -0.013207013519
62 1       5.821780000000       6.259400000000       1.078730000000      -0.112296925892       0.012350622669      -0.013220610608
63 1       5.831260000000       3.683280000000       6.259400000000      -0.013209184058       0.112233076689       0.012343922571
64 1       5.831260000000       5.821780000000       7.998180000000      -0.013207013519      -0.112289150489      -0.012344937089
65 1       6.259400000000       1.078730000000       5.821780000000       0.012350622669      -0.013220610608      -0.112296925892
66 1       6.259400000000       8.426320000000       8.435800000000       0.012368428431       0.013282130760       0.112325587966
67 1       6.259400000000       5.831260000000       3.683280000000       0.012343922571      -0.013209184058       0.112233076689
68 1       6.259400000000       3.673790000000       1.069250000000       0.012385373257       0.013314568009      -0.112333754191
69 1       7.998180000000       8.426320000000       1.069250000000      -0.012369455630       0.013270867402      -0.112313739637
70 1       7.998180000000       5.831260000000       5.821780000000      -0.012344937089      -0.013207013519      -0.112289150489
71 1       7.998180000000       3.673790000000       8.435800000000      -0.012391270738       0.013323121909       0.112363025983
72 1       7.998180000000       1.078730000000       3.683280000000      -0.012356532822      -0.013220071685       0.112258275385
73 1       8.426320000000       8.435800000000       6.259400000000       0.013282130760       0.112325587966       0.012368428431
74 1       8.426320000000       1.069250000000       7.998180000000       0.013270867402      -0.112313739637      -0.012369455630
75 1       8.435800000000       6.259400000000       8.426320000000       0.112325587966       0.012368428431       0.013282130760
76 1       8.435800000000       7.998180000000       3.673790000000       0.112363025983      -0.012391270738       0.013323121909
77 1       1.069250000000       6.259400000000       3.673790000000      -0.112333754191       0.012385373257       0.013314568009
78 1       1.069250000000       7.998180000000       8.426320000000      -0.112313739637      -0.012369455630       0.013270867402
79 1       1.078730000000       3.683280000000       7.998180000000      -0.013220071685       0.112258275385      -0.012356532822
80 1       1.078730000000       5.821780000000       6.259400000000      -0.013220610608      -0.112296925892       0.012350622669
