ITEM: TIMESTEP
0
ITEM: NUMBER OF ATOMS
30
ITEM: BOX BOUNDS xy xz yz pp pp pp
-2.5318577910000002e+00 5.0637156020000003e+00 -2.5318577910000002e+00
0.0000000000000000e+00 4.3853067670000003e+00 0.0000000000000000e+00
0.0000000000000000e+00 1.3631884907000000e+01 0.0000000000000000e+00
ITEM: ATOMS id type c_pe_atom
1 2      -4.679776842645
2 2      -4.679771811470
3 2      -4.679787334982
4 2      -4.679791951053
5 2      -4.679773409570
6 2      -4.679786005767
7 2      -4.679769023280
8 2      -4.679772676959
9 2      -4.679794359170
10 2      -4.679784979326
11 2      -4.679791111795
12 2      -4.679776407846
13 1     -11.051604983508
14 1     -11.051604577447
15 1     -11.051603723783
16 1     -11.051607137852
17 1     -11.051606367186
18 1     -11.051603707779
19 1     -11.051607306427
20 1     -11.051610110945
21 1     -11.051608071534
22 1     -11.051601345588
23 1     -11.051608106556
24 1     -11.051607200364
25 1     -11.051604303180
26 1     -11.051602551603
27 1     -11.051601785303
28 1     -11.051604735649
29 1     -11.051600682764
30 1     -11.051606414491
