ITEM: TIMESTEP
0
ITEM: NUMBER OF ATOMS
30
ITEM: BOX BOUNDS xy xz yz pp pp pp
-2.5318577910000002e+00 5.0637156020000003e+00 -2.5318577910000002e+00
0.0000000000000000e+00 4.3853067670000003e+00 0.0000000000000000e+00
0.0000000000000000e+00 1.3631884907000000e+01 0.0000000000000000e+00
ITEM: ATOMS id type x y z fx fy fz
1 2       0.000000000000       0.000000000000       1.964200000000       0.000025077573      -0.000025784231      -0.096054602875
2 2       0.000000006667       2.923540000000       0.307790000000       0.000006354823      -0.000046206157       0.095965461876
3 2       2.531860003333       1.461770000000       2.579760000000      -0.000012123169      -0.000015727841       0.096006181229
4 2       0.000000006667       2.923540000000       4.236190000000       0.000044426844      -0.000038204040      -0.096062368689
5 2       2.531860003333       1.461770000000       6.508160000000      -0.000046781277      -0.000036105177      -0.096002567386
6 2       0.000000000000       0.000000000000       4.851740000000      -0.000019054820       0.000025214092       0.096061534772
7 2       0.000000006667       2.923540000000       7.123730000000       0.000058641340      -0.000045714236       0.095989730962
8 2       0.000000000000       0.000000000000       8.780140000000       0.000049056172      -0.000026012156      -0.096050279773
9 2       0.000000006667       2.923540000000      11.052130000000       0.000001188083      -0.000032810803      -0.096042676301
10 2       2.531860003333       1.461770000000       9.395700000000      -0.000043839450      -0.000013970460       0.096032087048
11 2       0.000000000000       0.000000000000      11.667680000000       0.000035946625       0.000024236342       0.096069900302
12 2       2.531860003333       1.461770000000      13.324100000000      -0.000025778645      -0.000035893538      -0.095979257297
13 1      -0.767259996970       1.328940000000       3.407970000000      -0.054747768000       0.094849184123       0.000061013381
14 1       1.534530000000       0.000000000000       3.407970000000       0.109493419354      -0.000003003782       0.000029640848
15 1       1.764600006970       3.056370000000       3.407970000000      -0.054846217769      -0.094838174610       0.000062885564
16 1       3.299120000303       0.132830000000       1.135990000000       0.054780679391      -0.094806598652       0.000038823093
17 1       3.299120006364       2.790700000000       1.135990000000       0.054724730061       0.094945862386       0.000052113551
18 1       0.997330003333       1.461770000000       1.135990000000      -0.109464612734      -0.000055547131       0.000027895336
19 1       1.764600006364       2.790700000000       7.951930000000      -0.054761132040       0.094942650136       0.000059108616
20 1       4.066390003333       1.461770000000       7.951930000000       0.109440370522      -0.000060142005       0.000046660652
21 1       1.764600000303       0.132830000000       7.951930000000      -0.054824500713      -0.094797549574       0.000084962960
22 1       0.767260003636       1.594600000000       5.679960000000       0.054738858527      -0.094885804153      -0.000104029464
23 1       0.767260009697       4.252470000000       5.679960000000       0.054846786294       0.094903655898      -0.000096213979
24 1      -1.534529993333       2.923540000000       5.679960000000      -0.109463331069       0.000029833187      -0.000098273959
25 1      -0.767259990303       4.252470000000      12.495900000000      -0.054823071426       0.094912940683      -0.000066521840
26 1       1.534530006667       2.923540000000      12.495900000000       0.109474132600       0.000015434025      -0.000070870043
27 1      -0.767259996364       1.594600000000      12.495900000000      -0.054713295405      -0.094881948341      -0.000088754778
28 1      -1.764595595030       3.056370000000      10.223910000000       0.054803179065      -0.094838978931       0.000048075036
29 1       0.767260003030       1.328940000000      10.223910000000       0.054798441892       0.094852516867       0.000045227719
30 1       3.529190000000       0.000000000000      10.223910000000      -0.109529782652      -0.000017351922       0.000035113439
