ITEM: TIMESTEP
0
ITEM: NUMBER OF ATOMS
40
ITEM: BOX BOUNDS pp pp pp
0.0000000000000000e+00 8.9429652940000004e+00
0.0000000000000000e+00 5.2077694259999996e+00
0.0000000000000000e+00 9.5692356410000006e+00
ITEM: ATOMS id type x y z fx fy fz
1 2       1.396620000000       1.617020000000       8.506620000000       0.106800315194      -0.052252757145       0.024394659321
2 2       3.185670000000       4.220900000000       8.506630000000      -0.106784297025      -0.052154372467       0.024341383751
3 2       5.898330000000       0.908640000000       7.645900000000      -0.046615428928      -0.050602190998      -0.047709253366
4 2       7.626920000000       3.512520000000       7.645900000000       0.046579941225      -0.050497877422      -0.047643805483
5 2       4.822690000000       3.529750000000       5.706120000000       0.177170636062      -0.122632704899       0.017568370976
6 2       1.502410000000       3.578590000000       5.830820000000       0.089305192073      -0.032375756250       0.282930300595
7 2       3.079870000000       0.974710000000       5.830820000000      -0.089172999642      -0.032422874581       0.282914081791
8 2       8.702570000000       0.925860000000       5.706120000000      -0.177216458942      -0.122553293144       0.017578521158
9 2       1.426740000000       1.695080000000       2.861380000000      -0.044307171914       0.051030244190      -0.047224141736
10 2       3.155560000000       4.298960000000       2.861390000000       0.044274671053       0.051152486713      -0.047296368644
11 2       5.867450000000       0.987430000000       3.721900000000       0.104441449061       0.052551083575       0.025530130196
12 2       7.657810000000       3.591320000000       3.721900000000      -0.104592069685       0.052375787585       0.025491178065
13 2       4.231860000000       1.678530000000       0.921910000000      -0.174014593360       0.123666907296       0.017965512290
14 2       5.973790000000       4.233130000000       1.045770000000       0.090179121032       0.032575187924       0.282057755256
15 2       7.551470000000       1.629240000000       1.045770000000      -0.090157380761       0.032621093333       0.282014057711
16 2       0.350430000000       4.282410000000       0.921910000000       0.173982377074       0.123738908505       0.017937806470
17 1       7.466540000000       1.803640000000       4.496650000000       0.036389082128      -0.010210010094       0.005690396984
18 1       0.051880000000       0.793750000000       0.071450000000       0.114144555392      -0.078338387406       0.003475047147
19 1       7.489850000000       0.075960000000       7.070760000000       0.034329415606       0.105380720692      -0.107513805164
20 1       7.409130000000       5.037040000000       2.149940000000       0.052817942959      -0.131591932538      -0.098498035962
21 1       6.058710000000       4.407530000000       4.496650000000      -0.036212487583      -0.010351144190       0.005641806323
22 1       7.588060000000       3.398240000000       9.546960000000       0.029163993232       0.040710069187      -0.119044748519
23 1       6.035400000000       2.679850000000       7.070760000000      -0.034373329654       0.105333435884      -0.107523231371
24 1       6.116140000000       2.433150000000       2.149950000000      -0.052855958579      -0.131463624286      -0.098546626281
25 1       1.465310000000       1.809370000000       4.762710000000      -0.029083226638      -0.041512648270      -0.121213169173
26 1       2.995630000000       0.800770000000       9.281750000000       0.035758666221       0.009743875924       0.005394313665
27 1       1.646120000000       0.169480000000       6.935710000000      -0.052354217609       0.132381108337      -0.095604683792
28 1       1.563970000000       5.131690000000       2.286400000000      -0.033388475920      -0.105239961019      -0.105962900249
29 1       0.059210000000       4.414510000000       4.856220000000      -0.113554072731       0.077108242681       0.003891061774
30 1       1.586660000000       3.404650000000       9.281750000000      -0.035770315502       0.009813495613       0.005427233011
31 1       0.144100000000       2.472790000000       7.022220000000      -0.071502624868       0.045042523233       0.036561631569
32 1       8.909300000000       2.734530000000       2.237790000000       0.071204530259      -0.045579196093       0.037425145409
33 1       4.523080000000       1.810620000000       4.856230000000       0.113598307200       0.077184600642       0.003865461990
34 1       5.937190000000       0.794360000000       9.546960000000      -0.029151227127       0.040693579475      -0.119034044843
35 1       4.438180000000       5.076670000000       7.022220000000       0.071576231112       0.045090315197       0.036621687334
36 1       4.615960000000       0.130650000000       2.237800000000      -0.071182067537      -0.045619688760       0.037332519732
37 1       3.116980000000       4.413250000000       4.762710000000       0.029048199324      -0.041517938307      -0.121098235562
38 1       4.530410000000       3.397640000000       0.071460000000      -0.114120127540      -0.078339185664       0.003454970637
39 1       2.936160000000       2.773360000000       6.935720000000       0.052249548164       0.132395696416      -0.095602152574
40 1       3.018330000000       2.527810000000       2.286400000000       0.033394357175      -0.105333818870      -0.105989830435
