ITEM: TIMESTEP
0
ITEM: NUMBER OF ATOMS
80
ITEM: BOX BOUNDS pp pp pp
0.0000000000000000e+00 8.8021311939999993e+00
0.0000000000000000e+00 1.0251514617000000e+01
0.0000000000000000e+00 9.4185390170000005e+00
ITEM: ATOMS id type x y z fx fy fz
1 2       1.380860000000       1.586610000000       8.361860000000       0.094045983391       0.014706480592       0.067668890664
2 2       3.129270000000       4.149490000000       8.361870000000      -0.094056954161       0.014613960386       0.067573501444
3 2       5.797020000000       0.904640000000       7.522280000000      -0.035880523347      -0.003090565953      -0.071056806146
4 2       7.515240000000       3.467520000000       7.522290000000       0.035909385378      -0.003141464558      -0.071119623558
5 2       4.740230000000       3.471550000000       5.615480000000       0.161587153276      -0.133456173534       0.143010100072
6 2       1.478190000000       3.518790000000       5.740370000000       0.081059890564      -0.134035498297       0.222491951516
7 2       3.031930000000       0.955910000000       5.740370000000      -0.080935858065      -0.133974855116       0.222414950595
8 2       8.572030000000       0.908670000000       5.615480000000      -0.161586761141      -0.133467118597       0.143033943792
9 2       1.395880000000       1.657750000000       2.812780000000      -0.037160502733       0.004746037836      -0.069536905806
10 2       3.114260000000       4.220620000000       2.812780000000       0.037070738051       0.004979304446      -0.069490614759
11 2       5.780750000000       0.977130000000       3.652740000000       0.097804634587      -0.015932953453       0.067509931197
12 2       7.531510000000       3.540010000000       3.652740000000      -0.097759427161      -0.015911826259       0.067478677457
13 2       4.171890000000       1.654660000000       0.906340000000      -0.156694771430       0.137078763276       0.146519502612
14 2       5.878990000000       4.169840000000       1.030800000000       0.085095140667       0.135677650112       0.224817922081
15 2       7.433270000000       1.606960000000       1.030800000000      -0.084977702396       0.135689374800       0.224809983958
16 2       0.338240000000       4.217540000000       0.906350000000       0.156650203299       0.137027677244       0.146397033255
17 2       1.380860000000       6.712370000000       8.361860000000       0.094052147793       0.014647298070       0.067669416985
18 2       3.129270000000       9.275250000000       8.361870000000      -0.094056078863       0.014523893184       0.067571844891
19 2       5.797020000000       6.030400000000       7.522280000000      -0.035917509497      -0.003249726448      -0.071043267302
20 2       7.515240000000       8.593280000000       7.522290000000       0.035884249763      -0.003262271000      -0.071108210435
21 2       4.740230000000       8.597310000000       5.615480000000       0.161587745824      -0.133553913228       0.143039584308
22 2       1.478190000000       8.644550000000       5.740370000000       0.081083256767      -0.134104034263       0.222502882976
23 2       3.031930000000       6.081670000000       5.740370000000      -0.080920373423      -0.134023725299       0.222439469242
24 2       8.572030000000       6.034430000000       5.615480000000      -0.161550607552      -0.133563715435       0.143081470724
25 2       1.395880000000       6.783500000000       2.812780000000      -0.037174511814       0.004842107856      -0.069537673276
26 2       3.114260000000       9.346380000000       2.812780000000       0.037004028155       0.004825312253      -0.069523977808
27 2       5.780750000000       6.102890000000       3.652740000000       0.097721123299      -0.015956602653       0.067494895461
28 2       7.531510000000       8.665760000000       3.652740000000      -0.097736652462      -0.015861768652       0.067476323496
29 2       4.171890000000       6.780420000000       0.906340000000      -0.156690546074       0.137025894196       0.146492966235
30 2       5.878990000000       9.295600000000       1.030800000000       0.085101264991       0.135648369917       0.224815144384
31 2       7.433270000000       6.732720000000       1.030800000000      -0.084962746441       0.135631476478       0.224770113409
32 2       0.338240000000       9.343300000000       0.906350000000       0.156653069714       0.137055454300       0.146401782502
33 1       7.349730000000       1.783640000000       4.439890000000       0.043670573730      -0.038094750932       0.024552333174
34 1       0.039360000000       0.779290000000       0.044850000000       0.069502352387      -0.087234055307      -0.015442328431
35 1       7.382090000000       0.092900000000       6.960740000000      -0.004051395710       0.083998648258      -0.099398721397
36 1       7.308120000000      10.107380000000       2.135970000000       0.076538575331      -0.068887536893      -0.126659962952
37 1       5.962530000000       4.346520000000       4.439890000000      -0.043665081402      -0.038095439457       0.024515454813
38 1       7.461370000000       3.353520000000       9.401810000000      -0.004319475183      -0.061147279112      -0.139644945871
39 1       5.930170000000       2.655790000000       6.960740000000       0.004026295487       0.083722543572      -0.099324034491
40 1       6.004150000000       2.418740000000       2.135970000000      -0.076617408470      -0.068813310220      -0.126622651210
41 1       1.449250000000       1.771970000000       4.692640000000       0.005712571096       0.060884265205      -0.140113651013
42 1       2.949620000000       0.779980000000       9.149270000000       0.040388467616       0.037488619989       0.024473808854
43 1       1.604400000000       0.143010000000       6.846310000000      -0.073383807780       0.067633999063      -0.122539288335
44 1       1.529150000000      10.158080000000       2.251440000000       0.005068152825      -0.082374763612      -0.098306454589
45 1       0.070170000000       4.347190000000       4.754090000000      -0.064190835101       0.086267943105      -0.010572404440
46 1       1.560510000000       3.342860000000       9.149270000000      -0.040411751068       0.037454968057       0.024505701159
47 1       0.153440000000       2.439670000000       6.910750000000      -0.146985902645       0.043320080265      -0.015259039586
48 1       8.757190000000       2.685730000000       2.201690000000       0.151639230982      -0.047354009158      -0.012275271897
49 1       4.439960000000       1.784310000000       4.754090000000       0.064133272080       0.086237158769      -0.010529890079
50 1       5.850890000000       0.790640000000       9.401810000000       0.004276509986      -0.061147424105      -0.139768741345
51 1       4.356690000000      10.128300000000       6.910740000000       0.146945961255       0.043370864745      -0.015160398379
52 1       4.555080000000       0.122850000000       2.201690000000      -0.151717992170      -0.047350089327      -0.012283319823
53 1       3.060880000000       4.334840000000       4.692640000000      -0.005731060747       0.060938927921      -0.140143189502
54 1       4.470770000000       3.342160000000       0.044850000000      -0.069460607553      -0.087122962367      -0.015429867712
55 1       2.905720000000       2.705890000000       6.846320000000       0.073360640339       0.067564315054      -0.122594170335
56 1       2.980980000000       2.469450000000       2.251440000000      -0.004875707959      -0.082599283761      -0.098474234624
57 1       7.349730000000       6.909390000000       4.439890000000       0.043697681880      -0.037999980735       0.024522776594
58 1       0.039360000000       5.905040000000       0.044850000000       0.069487374937      -0.087115153434      -0.015447140586
59 1       7.382090000000       5.218660000000       6.960740000000      -0.004023781959       0.083930228349      -0.099382317757
60 1       7.308120000000       4.981620000000       2.135970000000       0.076548628992      -0.068865045397      -0.126675207530
61 1       5.962530000000       9.472270000000       4.439890000000      -0.043639738293      -0.038005098111       0.024482293593
62 1       7.461370000000       8.479280000000       9.401810000000      -0.004305567383      -0.061151178146      -0.139647818402
63 1       5.930170000000       7.781540000000       6.960740000000       0.004051538618       0.083938274040      -0.099374002744
64 1       6.004150000000       7.544500000000       2.135970000000      -0.076586199625      -0.068812698743      -0.126603251108
65 1       1.449250000000       6.897730000000       4.692640000000       0.005690267800       0.060875697020      -0.140134848917
66 1       2.949620000000       5.905740000000       9.149270000000       0.040389934367       0.037433880342       0.024456983611
67 1       1.604400000000       5.268770000000       6.846310000000      -0.073407033187       0.067620307721      -0.122556801614
68 1       1.529150000000       5.032320000000       2.251440000000       0.005053257235      -0.082413016926      -0.098313288125
69 1       0.070170000000       9.472950000000       4.754090000000      -0.064221198138       0.086198708486      -0.010608141378
70 1       1.560510000000       8.468620000000       9.149270000000      -0.040423029117       0.037456157048       0.024502734391
71 1       0.153440000000       7.565430000000       6.910750000000      -0.146995055597       0.043337652758      -0.015260253043
72 1       8.757190000000       7.811490000000       2.201690000000       0.151669347410      -0.047406881221      -0.012260920875
73 1       4.439960000000       6.910070000000       4.754090000000       0.064132632389       0.086240724817      -0.010535102344
74 1       5.850890000000       5.916400000000       9.401810000000       0.004286589037      -0.061153105948      -0.139750066483
75 1       4.356690000000       5.002540000000       6.910740000000       0.146961487201       0.043417011993      -0.015147288734
76 1       4.555080000000       5.248610000000       2.201690000000      -0.151723964930      -0.047393202827      -0.012283103359
77 1       3.060880000000       9.460600000000       4.692640000000      -0.005725133788       0.060929944452      -0.140122791815
78 1       4.470770000000       8.467920000000       0.044850000000      -0.069462214379      -0.087116763377      -0.015436553463
79 1       2.905720000000       7.831640000000       6.846320000000       0.073335431796       0.067682962007      -0.122585724142
80 1       2.980980000000       7.595200000000       2.251440000000      -0.004891321553      -0.082423696124      -0.098410101925
