80
Config_type=bulk_kappa_phase Weight=1.0 Lattice="8.802131194 0.000000000 0.000000000 0.000000000 10.251514617 0.000000000 0.000000000 0.000000000 9.418539017" Energy=-681.06052060 Virial="-0.03848 -0.04869 -0.00309 -0.04869 -0.13941 0.05611 -0.00309 0.05611 -0.07492" pbc="T T T" Properties=species:S:1:pos:R:3:forces:R:3
Ga	      1.38086      1.58661      8.36186        -0.000447     -0.002529      0.026345
Ga	      3.12927      4.14949      8.36187         0.002448      0.000110      0.022342
Ga	      5.79702      0.90464      7.52228        -0.002213     -0.002777      0.003095
Ga	      7.51524      3.46752      7.52229         0.004498      0.002014      0.002259
Ga	      4.74023      3.47155      5.61548         0.009965     -0.001035     -0.002290
Ga	      1.47819      3.51879      5.74037        -0.001744     -0.001038     -0.005250
Ga	      3.03193      0.95591      5.74037         0.006549      0.001510     -0.013671
Ga	      8.57203      0.90867      5.61548        -0.011468      0.000572     -0.010393
Ga	      1.39588      1.65775      2.81278        -0.004507      0.000360      0.003822
Ga	      3.11426      4.22062      2.81278         0.002444      0.003529      0.004300
Ga	      5.78075      0.97713      3.65274         0.003163     -0.000723      0.018967
Ga	      7.53151      3.54001      3.65274        -0.005795     -0.000142      0.023559
Ga	      4.17189      1.65466      0.90634        -0.006481      0.000770     -0.000497
Ga	      5.87899      4.16984      1.03080        -0.004336     -0.002348     -0.010367
Ga	      7.43327      1.60696      1.03080        -0.000763      0.001189     -0.002224
Ga	      0.33824      4.21754      0.90635         0.005475      0.001829     -0.008193
Ga	      1.38086      6.71237      8.36186        -0.000432     -0.002612      0.026363
Ga	      3.12927      9.27525      8.36187         0.002444      0.000031      0.022308
Ga	      5.79702      6.03040      7.52228        -0.002255     -0.002947      0.003132
Ga	      7.51524      8.59328      7.52229         0.004445      0.001866      0.002295
Ga	      4.74023      8.59731      5.61548         0.009959     -0.001119     -0.002284
Ga	      1.47819      8.64455      5.74037        -0.001735     -0.001103     -0.005248
Ga	      3.03193      6.08167      5.74037         0.006569      0.001430     -0.013660
Ga	      8.57203      6.03443      5.61548        -0.011438      0.000453     -0.010349
Ga	      1.39588      6.78350      2.81278        -0.004530      0.000483      0.003820
Ga	      3.11426      9.34638      2.81278         0.002374      0.003371      0.004280
Ga	      5.78075      6.10289      3.65274         0.003088     -0.000766      0.018936
Ga	      7.53151      8.66576      3.65274        -0.005772     -0.000077      0.023579
Ga	      4.17189      6.78042      0.90634        -0.006496      0.000704     -0.000515
Ga	      5.87899      9.29560      1.03080        -0.004328     -0.002386     -0.010373
Ga	      7.43327      6.73272      1.03080        -0.000739      0.001116     -0.002266
Ga	      0.33824      9.34330      0.90635         0.005483      0.001856     -0.008195
O	      7.34973      1.78364      4.43989         0.007305     -0.005247     -0.001227
O	      0.03936      0.77929      0.04485        -0.000636     -0.000775      0.002125
O	      7.38209      0.09290      6.96074         0.000134      0.002109     -0.002844
O	      7.30812     10.10738      2.13597        -0.003914     -0.011636     -0.005190
O	      5.96253      4.34652      4.43989        -0.006212     -0.002794     -0.001109
O	      7.46137      3.35352      9.40181         0.002501     -0.003154     -0.003754
O	      5.93017      2.65579      6.96074         0.000645      0.012024     -0.004334
O	      6.00415      2.41874      2.13597         0.005081     -0.004860     -0.004367
O	      1.44925      1.77197      4.69264        -0.000781      0.003800     -0.002587
O	      2.94962      0.77998      9.14927         0.003441      0.002412     -0.001480
O	      1.60440      0.14301      6.84631         0.004332      0.011242     -0.004808
O	      1.52915     10.15808      2.25144         0.002309     -0.000473     -0.000778
O	      0.07017      4.34719      4.75409         0.007121     -0.000307      0.006549
O	      1.56051      3.34286      9.14927        -0.004156      0.004770     -0.001206
O	      0.15344      2.43967      6.91075        -0.001876      0.003877     -0.002403
O	      8.75719      2.68573      2.20169         0.007236     -0.005884     -0.000431
O	      4.43996      1.78431      4.75409        -0.007566     -0.002080      0.006412
O	      5.85089      0.79064      9.40181         0.000480     -0.004261     -0.009051
O	      4.35669     10.12830      6.91074         0.000649      0.001817     -0.004336
O	      4.55508      0.12285      2.20169        -0.006141     -0.003770     -0.002365
O	      3.06088      4.33484      4.69264        -0.002216      0.004834     -0.008364
O	      4.47077      3.34216      0.04485         0.001567      0.001545      0.001859
O	      2.90572      2.70589      6.84632        -0.004114      0.006470     -0.004852
O	      2.98098      2.46945      2.25144        -0.001922     -0.010967     -0.003151
O	      7.34973      6.90939      4.43989         0.007318     -0.005159     -0.001253
O	      0.03936      5.90504      0.04485        -0.000643     -0.000636      0.002108
O	      7.38209      5.21866      6.96074         0.000086      0.002153     -0.002830
O	      7.30812      4.98162      2.13597        -0.003914     -0.011618     -0.005188
O	      5.96253      9.47227      4.43989        -0.006206     -0.002698     -0.001127
O	      7.46137      8.47928      9.40181         0.002531     -0.003152     -0.003881
O	      5.93017      7.78154      6.96074         0.000747      0.012244     -0.004340
O	      6.00415      7.54450      2.13597         0.005105     -0.004864     -0.004354
O	      1.44925      6.89773      4.69264        -0.000793      0.003796     -0.002611
O	      2.94962      5.90574      9.14927         0.003441      0.002405     -0.001472
O	      1.60440      5.26877      6.84631         0.004300      0.011235     -0.004825
O	      1.52915      5.03232      2.25144         0.002246     -0.000477     -0.000798
O	      0.07017      9.47295      4.75409         0.007105     -0.000362      0.006528
O	      1.56051      8.46862      9.14927        -0.004148      0.004780     -0.001217
O	      0.15344      7.56543      6.91075        -0.001981      0.003960     -0.002356
O	      8.75719      7.81149      2.20169         0.007263     -0.005931     -0.000427
O	      4.43996      6.91007      4.75409        -0.007565     -0.002070      0.006413
O	      5.85089      5.91640      9.40181         0.000486     -0.004281     -0.009106
O	      4.35669      5.00254      6.91074         0.000735      0.001933     -0.004307
O	      4.55508      5.24861      2.20169        -0.006090     -0.003777     -0.002396
O	      3.06088      9.46060      4.69264        -0.002191      0.004794     -0.008420
O	      4.47077      8.46792      0.04485         0.001532      0.001557      0.001829
O	      2.90572      7.83164      6.84632        -0.004121      0.006609     -0.004828
O	      2.98098      7.59520      2.25144        -0.001933     -0.010720     -0.003076
