ITEM: TIMESTEP
0
ITEM: NUMBER OF ATOMS
160
ITEM: BOX BOUNDS pp pp pp
0.0000000000000000e+00 8.2896671649999991e+00
0.0000000000000000e+00 8.2896671649999991e+00
0.0000000000000000e+00 2.4869001493999999e+01
ITEM: ATOMS id type v_vir_xx v_vir_yy v_vir_zz v_vir_xy v_vir_xz v_vir_yz
1 2      -3.910540007976      -1.765581108063      -1.867630129876      -0.010432890101      -0.153767176247      -0.074514497156
2 2      -4.296013798319      -3.395803652233      -3.844358693893      -0.228773401356       0.547092457168       0.060384024112
3 2      -3.159663660627      -4.301235458666      -3.647637735858       0.279724333795       0.471738642505      -0.051231134517
4 2      -1.558160009175      -3.669082050120      -3.673889549848       0.385402710396      -0.227804811933       0.509768959069
5 2      -3.822708299780      -1.821738978563      -3.647584680732       0.163948527500      -0.007670335100       0.041764618910
6 2      -3.900508484995      -1.887796517734      -2.384446052942       0.231871700169       0.033541309358      -0.443440916899
7 2      -3.282153715509      -4.528800401062      -1.957813467072      -0.604847455596       0.022376429810      -0.027487654514
8 2      -1.345456020119      -4.821267055036      -3.777737098493       0.074865343998      -0.241257043045      -0.283720102870
9 2      -4.618117614086      -3.407586679397      -1.908712638789      -0.598018261138       0.085457403817      -0.357746161454
10 2      -3.461143892265      -4.296708312033      -3.736170735413       0.288813212731       0.074530099901      -0.301954415048
11 2      -4.894984125541      -1.621406435278      -3.940335451742      -0.041805606731       0.371120588765      -0.240514817079
12 2      -1.602594927582      -3.682659809540      -3.660170314602      -0.024488094422       0.516736566293       0.471639531756
13 2      -1.987127650988      -3.855404548858      -2.571890474854      -0.359567287146       0.723188573208      -0.077153829930
14 2      -3.721682747877      -1.778598473955      -3.709822149424       0.195004660102      -0.021363081529       0.003777670993
15 2      -4.385831747976      -3.117560060585      -3.608233078167       0.289260435608       0.177160175682       0.363909519762
16 2      -1.087147634439      -4.662868793260      -4.020799945296      -0.053350561501      -0.293140227246      -0.041483042205
17 2      -4.227212968551      -3.496320370109      -2.028754857451       0.524118394068       0.040437587602       0.187542981925
18 2      -1.844153170136      -3.934631233973      -2.347934640277       0.058304834714      -0.310586683479      -0.291561872063
19 2      -3.318569398959      -4.530740198059      -1.958167468090      -0.608463009346       0.070973457487      -0.004886514065
20 2      -4.634631272222      -1.109994141001      -3.986451455601       0.135782664356       0.300047145333       0.590317224229
21 2      -2.793577608293      -2.892008624581      -0.329195140536      -0.758812134363       0.135709004378       0.095114669772
22 2      -2.365679912087      -2.500696200627      -4.369930208927      -0.668188492624      -0.155461838629       0.546860962345
23 2      -4.003604441010      -0.856550218526      -0.789421663196      -0.384694335443       0.582577375958       0.495729624463
24 2      -3.154706926062      -3.942965893795      -3.482726902082      -0.846976461714       1.441520385739       1.451048105420
25 2      -3.987385659775      -1.729558062612      -2.278670087275      -0.553835033344       0.585312006500       1.054537505812
26 2      -2.637798398538      -0.224368916323      -2.387930126355       0.462898120459       0.343644009583      -0.757128833551
27 2      -2.412344034645       0.188818627572      -2.698274661754      -0.449602679749       0.392565407798       0.278295913985
28 2      -3.731790173752      -3.545765737142      -3.632449987669       0.860995944072       1.493778063266      -1.515419038413
29 2      -0.362638437413      -2.375725017103      -2.213769962802       0.326468354403       0.589452074123      -0.576396993746
30 2      -0.938298032245      -4.058014563622      -0.794453220396       0.921870016684       0.374111407200       0.816617281678
31 2      -2.041946117926      -2.453816166857      -4.274512763787       0.361953453568       0.616058022473       0.362301161162
32 2      -2.088756134923      -2.069341722846      -4.542815693622       0.489440180169      -0.014572205170       0.102970827778
33 2      -3.538540049659      -3.512662982738      -4.184351969843       0.844713125136      -0.159349204345       1.262376216374
34 2      -3.771114530005      -3.339075148926      -4.445583742360      -0.869190633235       0.372331798756       1.459039604985
35 2      -2.586728013587      -2.079980833679      -3.936162759236       0.468739679661       0.666701985162       0.504123124499
36 2      -3.863493490078      -2.150750134604      -2.348725234395       1.249097545802      -0.467739848789       0.063886114962
37 2      -2.542044583959      -2.885393351363      -0.599139993785       0.188444577395       0.962246283284       0.267238321218
38 2      -3.181768069508      -3.640737396509      -3.860556087172       0.756065185836      -0.722829975418       0.273204392764
39 2      -2.476490229018       0.045506282902      -2.757478094030       0.424089687223       0.129339185464      -0.713053172901
40 2      -0.132376915475      -2.632157543130      -2.725699123437      -0.424580802373      -0.256408261209      -0.153878836467
41 2      -3.562618948632      -3.309626368241      -2.706392789729       0.248026388299      -1.622753766174       1.537520732044
42 2      -2.132626875828      -3.576808706423      -1.243959607616       0.133213835912      -1.149434560811      -0.641737969468
43 2      -2.025925304472      -2.302300613287      -4.367159538760      -0.404657546119       0.610718090957      -0.155759425414
44 2      -3.307613108005      -3.863834100396      -3.980787164751       0.859715734691      -0.809251954815       0.350576641645
45 2      -3.788407522960      -3.286095301500      -4.134189985977       0.790018519558       0.509074012201      -0.984348727917
46 2      -3.622883177498      -3.462867696022      -3.636977966852      -0.717297825726      -0.092243476972      -0.968995901353
47 2      -3.328335096878      -3.755794004028      -3.829913489500      -0.807305758198      -0.937927176643      -0.154055906538
48 2      -1.994768020089      -3.607894723973      -1.493344203268      -0.128824618417      -1.112859544762       0.858551428066
49 2      -3.301066414122      -3.794830418353      -3.963625722661      -0.859921480592      -1.016721774920      -0.021918229766
50 2      -0.348722148687      -2.607237786093      -2.678121295760      -0.383160117391       0.817502956239       0.163775632917
51 2      -0.066926138832      -2.646294128168      -2.575223242585       0.342489479910      -0.362098759716      -0.039734255641
52 2      -3.632346000458      -2.254813668249      -2.133512898297       0.413584229380       0.588975940084      -0.883490744549
53 2      -2.556183602211      -3.670961570699      -2.144779492641      -1.069246716958       0.200124858480      -0.713270696107
54 2      -3.633749210968      -2.253426049040      -2.058065006643       0.461424350822       0.697059162445      -0.865368481844
55 2      -2.354581222744      -2.139974737398      -3.901657931718      -0.466450036660       0.392813274784      -0.016942041567
56 2      -3.424263668711      -3.444985325388      -2.693386806437      -0.213998007638      -1.510068916931      -1.740913337784
57 2      -1.660888348664      -3.960544216611      -2.247769896966      -0.543887393705       1.173458217455       0.381904917805
58 2      -2.548219715792      -2.137125250605      -4.392076146052       0.469249026343       0.598613641543       0.448134639310
59 2      -2.334001238287      -2.139623597462      -3.975376388518      -0.534276930895       0.558851202138       0.031661753984
60 2      -2.370912577114       0.095627101559      -2.862962704021      -0.447558824751       0.582972342982       0.245758376734
61 2      -0.274544619270      -1.971309239409      -1.774449929035      -0.036717837947       0.165292271704       0.905413471363
62 2      -1.903062032527      -0.567935092510      -1.906509759170      -0.065979772350       1.021998228563       0.133356528012
63 2      -0.507427345801      -1.806876290648      -1.817693163686       0.169903703644       0.147281259035      -1.101381418330
64 2      -1.879626350182      -0.419670060178      -1.837043242728      -0.029935095718       1.035079716029      -0.000466609131
65 1       2.243957518620       1.803890124023       1.656442742530       0.278393676569       0.128192539682      -0.028701729720
66 1       1.972879059332       1.902766272018       2.434837136715       0.207368852725       0.214038142054       0.212285468474
67 1      -0.222615878916       1.062110248229       1.718532084159      -0.244304649314      -0.209343336830      -0.549336905132
68 1       0.835286948390       1.102327922589      -0.418563982628       0.338214463588      -0.055976007009       0.027475215367
69 1       1.320676514947       0.381046827120       1.266059399881      -0.144607484063       0.357572319757      -0.249348281448
70 1       1.206250253370      -0.033327402768       0.989103279746      -0.158280498412       0.373978145248      -0.258058223102
71 1       1.845577925273       1.910206734613       1.275512589464      -0.452167623641      -0.077074233724       0.311773258522
72 1       0.787438295317       1.145052345113       0.937544894164      -0.050718693092      -0.020227687987       0.023101746687
73 1       2.009084408088       1.774888895124       1.433707901138       0.424613207014      -0.363271097065      -0.290469566937
74 1       0.585523240823       1.151976838026       0.942349386888       0.190425585055       0.069020441243      -0.086748961267
75 1       1.398590310483       0.389695965408       1.355942390374      -0.176904982976       0.460406619244      -0.251560911933
76 1       2.048007938050       1.870573432012       1.597345047003      -0.541819766083       0.505379698393      -0.598449384462
77 1       0.565731589755       1.297363010222       0.239757419230       0.016340709558      -0.230291126484      -0.037632577582
78 1      -0.458940787772       1.184447825499       1.254057205095       0.042487191521      -0.269725323330       0.439592556483
79 1       1.401791824717       0.477828714685       1.400418960831       0.195944237573       0.404193372231       0.144430144715
80 1       1.984807357272       1.919983541520       1.966199834397       0.580142006060       0.561052167037       0.703461159340
81 1       2.012977812825       1.777404356065       1.445931279501       0.421514824539      -0.378894499999      -0.287120086782
82 1       2.087779266986       1.887943470395       1.586527753535       0.216179959612      -0.309916287443      -0.236415564196
83 1       2.061520104478       1.941099945416       1.780305101186      -0.308693025881       0.113487358566      -0.257586807227
84 1       1.968294574444       1.698604273811       2.592501268221       0.001765424201       0.295270003978      -0.420062527147
85 1       0.368433584073       1.074277831870       0.579518721226      -0.076717634080      -0.344917533133       0.127791634688
86 1       0.898950015368       1.150105610400      -0.298938860536       0.339459783597      -0.004027601329      -0.004231984593
87 1       2.100577205730       2.149254003992       2.225752308936      -0.254243307764       0.289538874017      -0.218666226761
88 1       1.948577281292       1.757804009706       2.636740520553      -0.014262187974       0.318083789026      -0.511698618918
89 1       1.689838743789       2.009434609230       2.498031258261      -0.036009443547       0.314484453243       0.512064994271
90 1       2.288123990284       1.763401075152       1.660402319065       0.265345410808       0.117910567793      -0.040211536240
91 1       0.677203827776       1.091049925653       0.922690573207      -0.056234000634       0.001533082648      -0.031879072471
92 1       1.826314506497       1.888021733817       2.069281789173      -0.133398619141      -0.344430207767       0.405673148227
93 1      -0.511066591883       1.176399990387       1.274690484440       0.093613571265      -0.135460643238       0.398473130081
94 1       0.988166660035       0.889578692640      -0.085498636996      -0.311561520962      -0.287108636554      -0.207762215665
95 1       1.968204867970       1.962062656157       1.991901602435       0.600295961419       0.549047378889       0.721853577395
96 1       1.355742283000       0.415638435611       1.028526776743       0.152337155726       0.236879475567       0.129756082250
97 1       0.310381888784       1.311749295807       0.887969382118       0.171361877134       0.284728350911       0.263718579948
98 1       1.812235481063       1.798107607780       1.669679959012       0.500531661099       0.599538701963       0.534113007749
99 1       2.128686536090       1.733079953859       1.481376430701       0.478793810778      -0.705981535943      -0.308761997578
100 1       0.930461095784      -0.171611582700       1.651299931491      -0.130562543910      -0.517490180563      -0.320991744245
101 1       2.039965361899       2.243168502296       1.910607137138      -0.278969217565       0.308256823601      -0.460608211307
102 1       1.119782687125       0.537518151112       0.489200643263      -0.275694274351       0.204895305789      -0.160268065535
103 1       0.944693906929       0.523416931632       1.090381922214      -0.009583277970      -0.143364407604       0.019881277552
104 1       1.931562739326       1.944354386216       1.732823663042      -0.200976558717      -0.216383022296       0.090374618347
105 1       1.269876915119       0.550413717163       1.001076388758       0.111214286484      -0.103952803610       0.049958372109
106 1       1.560279388614       2.096210431691       1.731086923181       0.275828279552      -0.075401405912      -0.272951367354
107 1       0.939046461873       1.142222628494      -0.003174419448      -0.321044319995       0.034246637845      -0.347639069731
108 1       0.518357344338       1.281627537830       1.825195808635      -0.155152620593       0.181705117011      -0.454728559045
109 1       1.947796977177       1.701159724941       2.464803517855       0.103430619328      -0.361410258319       0.221397505577
110 1       1.822982938663       1.808579302453       2.322706485865      -0.110022383127      -0.106744220682       0.040421160814
111 1       1.052956741017       0.950192462294       0.070705165510       0.288800686998       0.093815610149       0.275434847000
112 1       0.407424683273       1.536863161122       1.375367017087       0.223921163736       0.238745742669       0.443887967954
113 1       1.127407554115       0.395682643130       0.767980891575      -0.130983692363       0.203115057085      -0.374344981668
114 1       1.060423920600       1.096835927977      -0.119240047886       0.242016385683       0.313576663800      -0.182495530227
115 1       1.966394113710       1.937784387470       2.471944762601      -0.099340446665       0.482741295274      -0.359682179626
116 1       1.942409314663       1.974772458342       1.412816177646      -0.496363310090       0.321636856790      -0.125836819622
117 1       1.705157363919       1.780876795740       1.686884110830       0.540302644821      -0.383489809889      -0.279422448089
118 1       1.953193111938       2.133782757618       1.734467711264       0.166210430061      -0.216272455301      -0.318511535629
119 1       0.958107797696      -0.234665303984       1.674385684374       0.212808046753       0.569543307920      -0.308740437877
120 1       1.275978738181       0.569026405045       0.448830807964       0.024223220847       0.000632313558      -0.353484560492
121 1       1.970819485044       2.076757644605       1.563465760778       0.536606689976       0.284513752502       0.238392437880
122 1       2.107550359738       1.742432710648       2.554363010682      -0.074776720426       0.563089173873       0.298685432989
123 1       0.255287481713       1.357877707959       0.790600073884      -0.134360320451      -0.129476634384       0.255865414817
124 1       0.561423140711       1.477369144093       1.802019051187      -0.116464878021      -0.068646370648       0.300528156682
125 1       1.761424172824       2.029123054016       1.507277536864      -0.508203230057      -0.544180626103       0.477128622475
126 1       1.225693683786      -0.405843902570       1.208601169482       0.089751583626      -0.420860027871       0.127399249369
127 1       1.876055428432       2.029322979370       2.516114803171       0.185812189150       0.188997744019       0.156968851939
128 1       2.090905605254       1.861718423356       1.842049791362       0.374170636679       0.139323823081       0.084684150744
129 1       1.184772588487      -0.557562013454       1.397400516308      -0.096648074573       0.447898141208       0.106875101941
130 1       1.845545240331       2.005281189190       2.435138402333       0.082411051409       0.220827062704       0.524232245306
131 1       0.368753890208       1.393628784279       0.582443633275      -0.043645075080      -0.394044149022       0.059427662678
132 1       2.097537131606       2.104782936715       2.058245077528       0.127092113549      -0.107780703637       0.013065650902
133 1       1.646430274439       1.963085315955       2.062297733364      -0.311714611150       0.309735450531      -0.237229257660
134 1       1.802151845144       2.059568159519       2.061292659792      -0.566541216385       0.468447869430      -0.804405676817
135 1       1.808618215735       1.866731611109       2.152922045394      -0.177529996580      -0.332453488428       0.414665360417
136 1       1.347119931690       0.531332992033       0.466308504752      -0.011178018894       0.185319992826       0.432017588565
137 1      -0.072110405940       1.187991945504       1.011390085525       0.187929757457      -0.196880472419      -0.292747254852
138 1       2.014621121771       1.966521463271       1.867556676476       0.276619223885      -0.337537335149      -0.383108183158
139 1       2.128915350367       2.099194305753       2.200347827329      -0.185003148570       0.235343486321      -0.024672336467
140 1       1.268605701611      -0.013445382660       1.123079255453      -0.180737985236       0.325017300470      -0.242792807943
141 1       1.017090279199       1.090298584338      -0.194832485947      -0.354076894736      -0.208516217264      -0.196051189425
142 1       1.649127835685       2.138788635876       1.421375117090      -0.448314506902      -0.259473076598       0.348951076458
143 1       1.453310524797       0.195540642990       0.826505203490       0.224725789032       0.338619177245       0.179580744083
144 1       2.068181142503       1.999881194956       2.299586192348       0.287031044509       0.472208116087       0.423237700898
145 1       0.456401106046       1.410087902436       1.946814056385       0.209932954309      -0.095723337007      -0.238856113845
146 1       0.369766133976       1.046668970041       1.083060232975       0.035823894081       0.049680495954      -0.019467263786
147 1       2.210899666201       2.137783438528       2.300794572944      -0.265952192773       0.289785147107      -0.234147273502
148 1       0.044256860799       1.263449496649       1.079120133455      -0.126431427992       0.255008675180      -0.265878974499
149 1      -0.468892272387       1.198295105243       1.022767357310      -0.150589092871      -0.135658518608      -0.458819460626
150 1       1.640064613407       1.950401141829       2.414509156930       0.010629157024      -0.307184789780      -0.251049179310
151 1       2.191860345606       1.974007531455       1.770247078603      -0.178279487985       0.016942654820      -0.018072278506
152 1       2.085200743227       2.042850908986       1.695126945498      -0.544323905821       0.586433237274      -0.345901004174
153 1       1.962652480056       1.780020015793       2.325894740352       0.133168708798       0.194406744920       0.269936068184
154 1       1.270061583787       0.682500235591       0.260826988324       0.101883191192       0.059106528186       0.435782276523
155 1       1.119584104601       0.776737331964      -0.383862106401      -0.285408703779      -0.070650707290       0.092436957832
156 1       1.740059205465       1.845017450640       1.430428141636      -0.482086420114      -0.190425571196       0.509994360904
157 1       1.940873675077       1.945697932749       2.188570066642      -0.193164501033      -0.355287805112       0.296150839877
158 1       0.631515835530       1.307088929145       0.383895620928      -0.042974942970      -0.338258793590      -0.044125070251
159 1       1.320057653543       0.717128956914       0.605848318225       0.125215753752       0.169691072301       0.192202008600
160 1       1.492160954642       0.560244843583       1.699086648900       0.195312597833       0.237963415514       0.319073893463
