160
Config_type=bulk_gamma_phase Weight=1.0 Lattice="8.289667165 0.000000000 0.000000000 0.000000000 8.289667165 0.000000000 0.000000000 0.000000000 24.869001494" Energy=-1359.68622020 Virial="50.98615 0.53805 -19.88378 0.53805 50.45852 -2.00959 -19.88378 -2.00959 55.82055" pbc="T T T" Properties=species:S:1:pos:R:3:forces:R:3
Ga	      1.20447      5.15016     21.85988         0.002626     -0.009606     -0.004125
Ga	      5.14620      0.83614     13.53901        -0.011780      0.005452     -0.002132
Ga	      7.07896      7.32761      7.31667        -0.000755      0.000097     -0.018967
Ga	      7.21530      7.05693     15.61709        -0.011483      0.013345      0.008185
Ga	      5.16897      5.20180      0.97161        -0.020516     -0.006202      0.007765
Ga	      2.99872      3.17306      7.14325         0.000202     -0.000355      0.025006
Ga	      0.93711      1.03947      1.09206        -0.015372     -0.000550     -0.024169
Ga	      5.11532      1.02676      5.19022         0.013184     -0.006696     -0.018435
Ga	      3.14876      2.92815     15.48668        -0.008588      0.009512     -0.019537
Ga	      5.33218      1.10300     21.69518         0.008601     -0.011492     -0.019780
Ga	      3.10061      7.17457     11.40052         0.005665     -0.003856     -0.009591
Ga	      7.34357      3.16214     19.61429        -0.002705      0.016651     -0.012946
Ga	      1.00868      5.04268     13.35566         0.011666      0.008091     -0.010619
Ga	      7.25680      3.18412      3.17141         0.005128     -0.001773      0.033438
Ga	      5.04793      5.28764      9.27290         0.001087     -0.013768      0.007970
Ga	      7.28135      7.36033     23.86323         0.026381     -0.007256     -0.005041
Ga	      3.16400      7.37930     19.74239        -0.009183      0.029218      0.024999
Ga	      0.90068      1.06867      9.42134         0.000565     -0.005537     -0.015995
Ga	      3.19704      7.34904      3.05127         0.011029      0.012318      0.006950
Ga	      1.16270      1.02873     17.64324         0.004720     -0.004869      0.004428
Ga	      3.88192      0.19452      8.30334        -0.011825      0.010352      0.010262
Ga	      6.08051      6.04813     12.41050        -0.009553      0.001875      0.023491
Ga	      2.14117      2.12486     20.74013        -0.012597     -0.006668      0.010809
Ga	      6.33934      6.22670     20.68251         0.014218      0.006855      0.004463
Ga	      1.93768      6.32939      8.19808        -0.000771      0.015526     -0.019945
Ga	      8.24731      2.03964      6.17873         0.014123     -0.014933      0.020853
Ga	      1.97472      2.07141      4.18429        -0.025381     -0.008269     -0.001104
Ga	      0.04073      1.99207     14.45962         0.003981      0.002269     -0.011057
Ga	      0.17034      6.14041     18.61002        -0.000523      0.001958      0.006279
Ga	      6.20731      0.05631      2.08235        -0.002626     -0.020700      0.015984
Ga	      6.03741      0.07628     10.42508        -0.016250      0.007352      0.003392
Ga	      4.13871      2.17597     18.60417        -0.001497     -0.007573      0.020857
Ga	      6.34754      8.24220     18.65090         0.000537      0.009623     -0.001474
Ga	      6.28909      2.04424     16.56762        -0.009307     -0.013970     -0.003854
Ga	      0.15925      2.05142     22.85102        -0.014180      0.000268     -0.007961
Ga	      2.00875      8.07375     14.60410         0.009952     -0.004529     -0.001954
Ga	      3.97539      5.96076     14.51581         0.010448      0.003954      0.009987
Ga	      6.19859      4.16573      6.23271         0.009718      0.003764     -0.010542
Ga	      4.16293      6.32372     22.83743         0.008633      0.023327     -0.010262
Ga	      0.09968      4.14690     16.58135         0.011837     -0.011760      0.004272
Ga	      2.06755      4.19885      2.07037        -0.016492     -0.022721      0.013147
Ga	      4.10492      4.25821     20.67352         0.006881      0.003695      0.012662
Ga	      4.10801      8.09248     16.64375        -0.014589     -0.000378     -0.008773
Ga	      6.22771      4.20092     22.76165        -0.000413     -0.025526     -0.022553
Ga	      8.22561      6.13584     10.34834         0.018520     -0.001122     -0.000261
Ga	      8.27122      8.23000     12.45272        -0.002889      0.014358     -0.019066
Ga	      0.04496      4.22926      0.02965        -0.008053     -0.000903     -0.002764
Ga	      6.16193      4.02513     14.48169         0.001415     -0.002566      0.001684
Ga	      4.08500      4.15530      4.11798         0.008776      0.011246     -0.029596
Ga	      2.10970      2.01556     12.35815         0.000955     -0.000098     -0.005230
Ga	      2.07451      4.06464     10.37536         0.007699      0.009298     -0.017251
Ga	      0.03829      6.35813      2.17632        -0.002910     -0.009624     -0.021514
Ga	      0.20116      8.25185     20.82624         0.002692     -0.004001     -0.011155
Ga	      4.07987      2.02945      1.96161         0.021741      0.008409     -0.005369
Ga	      6.13837      2.04060     24.82473         0.014625     -0.012789      0.001675
Ga	      8.25755      4.10498      8.28763         0.007930     -0.004165     -0.008433
Ga	      6.02870      2.14589      8.39255        -0.016739      0.006709     -0.015590
Ga	      3.97518      6.35915      6.15646         0.004899      0.016094      0.012255
Ga	      6.27388      6.35108      4.19566        -0.004553      0.012093     -0.008673
Ga	      2.15689      6.32266     24.83237        -0.005587      0.019630     -0.002807
Ga	      5.12217      3.09247     11.44101         0.020123     -0.022812      0.004399
Ga	      3.13988      1.07353     23.81193        -0.000434      0.025426     -0.005180
Ga	      3.14908      5.11385     17.61201         0.003692     -0.001701      0.008509
Ga	      0.97737      7.31206      5.17220         0.004754     -0.022063     -0.000660
O	      2.09604      2.13012      2.10411         0.002406     -0.000812     -0.000653
O	      6.07611      6.17267      6.18299        -0.002932     -0.002997     -0.006604
O	      4.17953      8.23973      6.35376        -0.007463      0.003414      0.006318
O	      4.25891      0.12738      2.03537        -0.004118      0.004929      0.002957
O	      8.17838      6.25678      4.08827        -0.008745     -0.006886     -0.006439
O	      0.02297      2.12578      4.22106         0.002066      0.003071     -0.002785
O	      6.14662      4.13459      8.25860        -0.014733      0.000390     -0.006466
O	      1.92173      4.37519      0.19905        -0.000735      0.013655      0.007626
O	      8.28586      4.30066      2.04761         0.000388      0.003563     -0.007707
O	      8.06904      3.99396      6.41825        -0.018930     -0.014990      0.008848
O	      4.23193      2.12518      0.04346         0.004041      0.009827      0.016706
O	      3.97335      6.32894      8.16199        -0.002455     -0.008981     -0.004664
O	      2.09287      0.08096      4.12425        -0.006510     -0.009921     -0.003131
O	      6.09754      8.24369      4.05048        -0.016624     -0.007265      0.011578
O	      2.06819      6.28610      6.27674         0.000789     -0.000336      0.007797
O	      6.15634      2.10775      2.00961         0.003582      0.000523      0.002517
O	      4.13489      4.08668      2.09301        -0.001884      0.007698      0.002220
O	      4.17993      4.28483      6.11720        -0.003401      0.006411      0.005672
O	      8.08828      2.08143      8.26384         0.010405     -0.003439     -0.005788
O	      0.04694      6.23707      0.09345        -0.004079      0.008475     -0.011408
O	      8.14702      0.06554      6.23376        -0.001987     -0.012124     -0.007575
O	      8.15760      8.26398      2.10743         0.003715     -0.008858     -0.003233
O	      4.19828      6.17269      4.18030        -0.011063     -0.001161      0.001951
O	      4.07741      2.14872      4.05953        -0.008463     -0.005035      0.002102
O	      6.18647      2.14729      6.29037        -0.001090     -0.012376     -0.001916
O	      2.03219      6.26283      2.03785         0.004505      0.002325     -0.000641
O	      2.20895      4.01938      3.93998         0.005397     -0.007483     -0.001180
O	      6.09397      4.27259      4.22188        -0.003169      0.003927     -0.001931
O	      6.30056      0.14645      0.11062         0.012421      0.007952     -0.002069
O	      1.99537      8.24505      8.40695        -0.004680     -0.000518      0.003858
O	      6.25753      6.28510      2.13507        -0.006926      0.003474     -0.002007
O	      1.90885      2.11188      6.11692        -0.000922      0.003617      0.002180
O	      2.02511      2.11885     10.42105        -0.007635     -0.007710      0.004741
O	      6.13542      6.06094     14.43533         0.008575      0.003213      0.003140
O	      4.06352      8.09511     14.64299        -0.004903      0.007756      0.008356
O	      4.15446      8.14907     10.24217         0.002876      0.007365     -0.006030
O	      8.15058      6.22358     12.35080        -0.008188     -0.001611      0.002313
O	      0.15109      1.80986     12.59376         0.012617     -0.011188      0.012349
O	      6.45523      3.90299     16.36986         0.012733     -0.010669     -0.004441
O	      2.00067      4.27098      8.30925         0.008669     -0.004416      0.001332
O	      0.10903      4.26781     10.15704         0.003834      0.016366     -0.012766
O	      8.28292      3.97822     14.52806         0.009244     -0.005156     -0.004711
O	      4.11041      2.08510      8.16999        -0.012101      0.011523     -0.002315
O	      4.12495      6.20297     16.46647         0.000567     -0.007833     -0.010026
O	      1.99934      8.24340     12.50203        -0.003328     -0.009918      0.003369
O	      6.26231      8.12351     12.39521        -0.004260      0.000840     -0.002276
O	      2.07088      6.17360     14.38468         0.000040     -0.021961     -0.007727
O	      6.10252      1.98860     10.30583        -0.007339     -0.002341     -0.002588
O	      4.06035      4.19762     10.36874         0.012430      0.004193      0.003964
O	      4.23019      4.07079     14.55307        -0.001995     -0.001795      0.000580
O	      0.02249      2.01751     16.48060         0.006730     -0.004037      0.002931
O	      8.23462      6.21604      8.32078        -0.002150      0.003813      0.000433
O	      0.02550      8.18734     14.50641        -0.002024     -0.011725      0.000726
O	      8.10604      8.15683     10.45069         0.008636      0.008972     -0.004029
O	      4.20040      6.25784     12.57286        -0.003322     -0.006177      0.003253
O	      4.10066      1.92340     12.47885         0.009117     -0.006075      0.001688
O	      6.30303      1.95108     14.53931        -0.002904     -0.004939      0.016712
O	      1.96295      6.13831     10.28794         0.001066      0.003092      0.004860
O	      2.05657      3.96841     12.31440        -0.009754     -0.001268      0.004317
O	      6.18967      4.14495     12.54301        -0.005152      0.003126     -0.005994
O	      6.03345      0.10710      8.42184         0.005797     -0.005600      0.000173
O	      2.19924      0.02160     16.50570        -0.006414      0.010268      0.003315
O	      6.22115      6.26359     10.40808        -0.004113     -0.003774      0.005410
O	      2.05912      1.84655     14.42475         0.000553     -0.002640      0.008847
O	      2.24287      2.00446     18.76707         0.006198     -0.005135     -0.005651
O	      6.26615      6.23736     22.70603         0.010204      0.011405      0.005954
O	      4.28183      0.02837     22.76022        -0.010627      0.021859      0.009815
O	      4.32693      0.07569     18.60219         0.003733     -0.012279     -0.003565
O	      0.10016      6.27015     20.73687         0.007706      0.005378     -0.001352
O	      0.10110      2.05243     20.78684        -0.008168     -0.006443      0.002169
O	      6.32827      4.11799     24.78327         0.002156      0.006352      0.008351
O	      2.08210      3.99367     16.55807         0.012837     -0.004075      0.004983
O	      0.09390      4.19282     18.53152        -0.012628     -0.001334      0.008672
O	      8.24728      4.10922     22.88644        -0.006193     -0.004681     -0.008960
O	      4.29019      1.91016     16.63961         0.000136     -0.001200     -0.004661
O	      4.11457      6.25909     24.78450        -0.003358     -0.007216      0.001731
O	      2.08772      0.14923     20.75764         0.000083     -0.000649     -0.008456
O	      6.41933      8.28943     20.65363         0.004696      0.004427      0.013814
O	      2.21417      6.28122     22.89751         0.000749     -0.000169      0.004838
O	      6.23315      1.97211     18.57883         0.000448      0.002678      0.006549
O	      4.21412      4.08284     18.74598         0.008531     -0.011338     -0.002166
O	      4.37407      4.39184     22.56808         0.005504      0.014333      0.003011
O	      8.21962      2.21601     24.83317         0.015427      0.006799     -0.000213
O	      0.06769      6.08597     16.65737        -0.008372     -0.006430      0.000215
O	      8.23995      0.14865     22.71985        -0.013230      0.002303     -0.003188
O	      0.06107      8.24985     18.74298         0.007178      0.000615     -0.002735
O	      4.31604      6.28297     20.75165        -0.004691      0.004495      0.005352
O	      4.20757      2.17743     20.63001         0.000991     -0.007133      0.008919
O	      6.35314      2.21297     22.84238         0.004458      0.013745      0.013338
O	      2.13399      6.25442     18.68948         0.009355     -0.007678     -0.005172
O	      2.19219      4.06953     20.75666         0.003276      0.009078      0.010479
O	      6.28425      4.23782     20.74538         0.004012      0.001829      0.010310
O	      6.18453      0.01062     16.64665        -0.007140     -0.002944     -0.003759
O	      2.04517      0.01624      0.02175        -0.009402      0.015911      0.003881
O	      6.51769      6.36893     18.81610         0.010084     -0.000623      0.005124
O	      2.04790      2.09762     22.71381        -0.012123      0.010423     -0.003016
