ITEM: TIMESTEP
0
ITEM: NUMBER OF ATOMS
20
ITEM: BOX BOUNDS xy xz yz pp pp pp
-1.3958235136890000e+00 1.2510288901369000e+01 0.0000000000000000e+00
0.0000000000000000e+00 3.0980638169999999e+00 -1.3958235136890000e+00
0.0000000000000000e+00 5.7354974455510002e+00 0.0000000000000000e+00
ITEM: ATOMS id type x y z fx fy fz
1 2       1.543629475095       1.549030000000       1.798868132360      -0.002268845107       0.000017019790       0.076837018817
2 2       3.315690328856       0.000000000000       3.936633072377       0.002293105925      -0.000017018280      -0.076907585735
3 2       0.014590827511       0.000000000000       4.557324725873      -0.011879073834      -0.000028576958      -0.021505390423
4 2       4.844728976440       1.549030000000       1.178176478863       0.011900853036       0.000028576568       0.021383653799
5 2       7.798774640227       0.000000000000       1.798864300120      -0.002293105922      -0.000017018280       0.076907585730
6 2       9.570835493989       1.549030000000       3.936629240136       0.002268845102       0.000017019790      -0.076837018819
7 2       6.269735992644       1.549030000000       4.557320893633      -0.011900853050       0.000028576568      -0.021383653786
8 2      11.099874141572       0.000000000000       1.178172646623       0.011879073841      -0.000028576957       0.021505390422
9 1       5.844405356965       0.000000000000       1.470627735518       0.004855403200      -0.000034671197      -0.003512611693
10 1      -0.985085553015       1.549030000000       4.264873469218      -0.004847131018       0.000034671694       0.003473014065
11 1       1.384780094491       0.000000000000       3.237330390183      -0.020968432628      -0.000009473363       0.015502704715
12 1       3.474542074099       1.549030000000       2.498161098151       0.020906395202       0.000009473496      -0.015425195901
13 1       2.970184036485       1.549030000000       5.110164328259       0.011553770891       0.000017131724       0.021763318964
14 1       1.889138132105       0.000000000000       0.625327160075      -0.011542335613      -0.000017133474      -0.021626300808
15 1      12.099550522098       1.549030000000       1.470623903278       0.004847131028       0.000034671694      -0.003473014063
16 1       5.270059612118       0.000000000000       4.264869636978      -0.004855403191      -0.000034671197       0.003512611697
17 1       7.639922894984       1.549030000000       3.237336274345      -0.020906395194       0.000009473496       0.015425195903
18 1       9.729684874593       0.000000000000       2.498166982313       0.020968432616      -0.000009473363      -0.015502704708
19 1       9.225326836979       0.000000000000       5.110170212421       0.011542335606      -0.000017133474       0.021626300804
20 1       8.144280932598       1.549030000000       0.625333044238      -0.011553770891       0.000017131724      -0.021763318979
