ITEM: TIMESTEP
0
ITEM: NUMBER OF ATOMS
80
ITEM: BOX BOUNDS pp pp pp
0.0000000000000000e+00 9.5238758899999993e+00
0.0000000000000000e+00 9.5238758899999993e+00
0.0000000000000000e+00 9.5238758899999993e+00
ITEM: ATOMS id type c_pe_atom
1 2      -5.422826845410
2 2      -5.274968799303
3 2      -5.274966548164
4 2      -5.274966660358
5 2      -5.274966548164
6 2      -5.274967488248
7 2      -5.274966660358
8 2      -5.422826845410
9 2      -5.422828438629
10 2      -5.422826845410
11 2      -5.274967488248
12 2      -5.274966660358
13 2      -5.274968799303
14 2      -5.274967488248
15 2      -5.274968799303
16 2      -5.274966548164
17 2      -5.422825252182
18 2      -5.274966513209
19 2      -5.274965122517
20 2      -5.274968652134
21 2      -5.274965122517
22 2      -5.274964182549
23 2      -5.274968652134
24 2      -5.422825252182
25 2      -5.422823659126
26 2      -5.422825252182
27 2      -5.274964182549
28 2      -5.274968652134
29 2      -5.274966513209
30 2      -5.274964182549
31 2      -5.274966513209
32 2      -5.274965122517
33 1     -10.609277707535
34 1     -10.609279990741
35 1     -10.609282525164
36 1     -10.609275930781
37 1     -10.609277791177
38 1     -10.609276620219
39 1     -10.609282525164
40 1     -10.609277791177
41 1     -10.609276620219
42 1     -10.609272495120
43 1     -10.609282525164
44 1     -10.609277707535
45 1     -10.609264788348
46 1     -10.609277791177
47 1     -10.609279990741
48 1     -10.609275930781
49 1     -10.609272495120
50 1     -10.609264788348
51 1     -10.609272495120
52 1     -10.609279990741
53 1     -10.609277707535
54 1     -10.609264788348
55 1     -10.609275930781
56 1     -10.609276620219
57 1     -10.609268143224
58 1     -10.609273790775
59 1     -10.609272295692
60 1     -10.609279803633
61 1     -10.609270925957
62 1     -10.609271183442
63 1     -10.609272295692
64 1     -10.609270925957
65 1     -10.609271183442
66 1     -10.609280372774
67 1     -10.609272295692
68 1     -10.609268143224
69 1     -10.609281975752
70 1     -10.609270925957
71 1     -10.609273790775
72 1     -10.609279803633
73 1     -10.609280372774
74 1     -10.609281975752
75 1     -10.609280372774
76 1     -10.609273790775
77 1     -10.609268143224
78 1     -10.609281975752
79 1     -10.609279803633
80 1     -10.609271183442
