ITEM: TIMESTEP
0
ITEM: NUMBER OF ATOMS
80
ITEM: BOX BOUNDS pp pp pp
0.0000000000000000e+00 9.5238758899999993e+00
0.0000000000000000e+00 9.5238758899999993e+00
0.0000000000000000e+00 9.5238758899999993e+00
ITEM: ATOMS id type x y z fx fy fz
1 2       7.142910000000       2.380970000000       2.380970000000      -0.000046959601       0.000023400636       0.000020346999
2 2       7.142910000000       4.415860000000       4.761940000000      -0.000060987114       0.150795667401      -0.000019083891
3 2       0.000000000000       7.142910000000       0.346080000000       0.000014963950      -0.000050399546      -0.150821061009
4 2       0.000000000000       2.380970000000       4.415860000000       0.000029757487       0.000005977928       0.150750027093
5 2       0.346080000000       0.000000000000       7.142910000000      -0.150821061009       0.000014963950      -0.000050399546
6 2       0.346080000000       4.761940000000       2.380970000000      -0.150794556092      -0.000004290122       0.000016565816
7 2       2.380970000000       4.415860000000       0.000000000000       0.000005977928       0.150750027093       0.000029757487
8 2       2.380970000000       7.142910000000       2.380970000000       0.000020346999      -0.000046959601       0.000023400636
9 2       2.380970000000       2.380970000000       2.380970000000       0.000021091036       0.000021091036       0.000021091036
10 2       2.380970000000       2.380970000000       7.142910000000       0.000023400636       0.000020346999      -0.000046959601
11 2       2.380970000000       0.346080000000       4.761940000000       0.000016565816      -0.150794556092      -0.000004290122
12 2       4.415860000000       0.000000000000       2.380970000000       0.150750027093       0.000029757487       0.000005977928
13 2       4.415860000000       4.761940000000       7.142910000000       0.150795667401      -0.000019083891      -0.000060987114
14 2       4.761940000000       2.380970000000       0.346080000000      -0.000004290122       0.000016565816      -0.150794556092
15 2       4.761940000000       7.142910000000       4.415860000000      -0.000019083891      -0.000060987114       0.150795667401
16 2       7.142910000000       0.346080000000       0.000000000000      -0.000050399546      -0.150821061009       0.000014963950
17 2       2.380970000000       7.142910000000       7.142910000000       0.000023052722      -0.000031742015      -0.000029780471
18 2       2.380970000000       9.177800000000       0.000000000000       0.000034628378       0.150711641422       0.000019539115
19 2       4.761940000000       2.380970000000       5.108020000000      -0.000014508515       0.000024040372      -0.150782428398
20 2       4.761940000000       7.142910000000       9.177800000000       0.000000285271      -0.000068461780       0.150757281842
21 2       5.108020000000       4.761940000000       2.380970000000      -0.150782428398      -0.000014508515       0.000024040372
22 2       5.108020000000       0.000000000000       7.142910000000      -0.150808933832       0.000034333450      -0.000079050213
23 2       7.142910000000       9.177800000000       4.761940000000      -0.000068461780       0.150757281842       0.000000285271
24 2       7.142910000000       2.380970000000       7.142910000000      -0.000029780471       0.000023052722      -0.000031742015
25 2       7.142910000000       7.142910000000       7.142910000000      -0.000043907487      -0.000043907487      -0.000043907487
26 2       7.142910000000       7.142910000000       2.380970000000      -0.000031742015      -0.000029780471       0.000023052722
27 2       7.142910000000       5.108020000000       0.000000000000      -0.000079050213      -0.150808933832       0.000034333450
28 2       9.177800000000       4.761940000000       7.142910000000       0.150757281842       0.000000285271      -0.000068461780
29 2       9.177800000000       0.000000000000       2.380970000000       0.150711641422       0.000019539115       0.000034628378
30 2       0.000000000000       7.142910000000       5.108020000000       0.000034333450      -0.000079050213      -0.150808933832
31 2       0.000000000000       2.380970000000       9.177800000000       0.000019539115       0.000034628378       0.150711641422
32 2       2.380970000000       5.108020000000       4.761940000000       0.000024040372      -0.150782428398      -0.000014508515
33 1       8.445490000000       5.835800000000       1.510970000000       0.031433842743      -0.131704699047       0.009297687905
34 1       8.445490000000       3.688080000000       3.250970000000       0.031423922297       0.131689610829      -0.009327658255
35 1       8.450020000000       1.510970000000       1.078380000000       0.131625435740       0.009233588608      -0.031275454889
36 1       8.450020000000       3.250970000000       5.840320000000       0.131658806650      -0.009291876455      -0.031302533830
37 1       1.073860000000       3.250970000000       1.078380000000      -0.131654398113      -0.009271542754      -0.031291088135
38 1       1.073860000000       1.510970000000       5.840320000000      -0.131678039504       0.009242616097      -0.031305727265
39 1       1.078380000000       8.450020000000       1.510970000000      -0.031275454889       0.131625435740       0.009233588608
40 1       1.078380000000       1.073860000000       3.250970000000      -0.031291088135      -0.131654398113      -0.009271542754
41 1       1.510970000000       5.840320000000       1.073860000000       0.009242616097      -0.031305727265      -0.131678039504
42 1       1.510970000000       3.683560000000       3.688080000000       0.009251365583       0.031266836390       0.131646021769
43 1       1.510970000000       1.078380000000       8.450020000000       0.009233588608      -0.031275454889       0.131625435740
44 1       1.510970000000       8.445490000000       5.835800000000       0.009297687905       0.031433842743      -0.131704699047
45 1       3.250970000000       3.683560000000       5.835800000000      -0.009308609883       0.031289196524      -0.131670839466
46 1       3.250970000000       1.078380000000       1.073860000000      -0.009271542754      -0.031291088135      -0.131654398113
47 1       3.250970000000       8.445490000000       3.688080000000      -0.009327658255       0.031423922297       0.131689610829
48 1       3.250970000000       5.840320000000       8.450020000000      -0.009291876455      -0.031302533830       0.131658806650
49 1       3.683560000000       3.688080000000       1.510970000000       0.031266836390       0.131646021769       0.009251365583
50 1       3.683560000000       5.835800000000       3.250970000000       0.031289196524      -0.131670839466      -0.009308609883
51 1       3.688080000000       1.510970000000       3.683560000000       0.131646021769       0.009251365583       0.031266836390
52 1       3.688080000000       3.250970000000       8.445490000000       0.131689610829      -0.009327658255       0.031423922297
53 1       5.835800000000       1.510970000000       8.445490000000      -0.131704699047       0.009297687905       0.031433842743
54 1       5.835800000000       3.250970000000       3.683560000000      -0.131670839466      -0.009308609883       0.031289196524
55 1       5.840320000000       8.450020000000       3.250970000000      -0.031302533830       0.131658806650      -0.009291876455
56 1       5.840320000000       1.073860000000       1.510970000000      -0.031305727265      -0.131678039504       0.009242616097
57 1       3.683560000000       1.073860000000       6.272900000000       0.031302868556      -0.131707379876       0.009385414908
58 1       3.683560000000       8.450020000000       8.012910000000       0.031270003101       0.131659008151      -0.009304417551
59 1       3.688080000000       6.272900000000       5.840320000000       0.131704587336       0.009393002867      -0.031341308818
60 1       3.688080000000       8.012910000000       1.078380000000       0.131651807079      -0.009291671745      -0.031296997411
61 1       5.835800000000       8.012910000000       5.840320000000      -0.131700266182      -0.009319989437      -0.031333996576
62 1       5.835800000000       6.272900000000       1.078380000000      -0.131696034066       0.009391959304      -0.031336589978
63 1       5.840320000000       3.688080000000       6.272900000000      -0.031341308818       0.131704587336       0.009393002867
64 1       5.840320000000       5.835800000000       8.012910000000      -0.031333996576      -0.131700266182      -0.009319989437
65 1       6.272900000000       1.078380000000       5.835800000000       0.009391959304      -0.031336589978      -0.131696034066
66 1       6.272900000000       8.445490000000       8.450020000000       0.009423753305       0.031444322361       0.131722007547
67 1       6.272900000000       5.840320000000       3.688080000000       0.009393002867      -0.031341308818       0.131704587336
68 1       6.272900000000       3.683560000000       1.073860000000       0.009385414908       0.031302868556      -0.131707379876
69 1       8.012910000000       8.445490000000       1.073860000000      -0.009331449837       0.031430282409      -0.131721829816
70 1       8.012910000000       5.840320000000       5.835800000000      -0.009319989437      -0.031333996576      -0.131700266182
71 1       8.012910000000       3.683560000000       8.450020000000      -0.009304417551       0.031270003101       0.131659008151
72 1       8.012910000000       1.078380000000       3.688080000000      -0.009291671745      -0.031296997411       0.131651807079
73 1       8.445490000000       8.450020000000       6.272900000000       0.031444322361       0.131722007547       0.009423753305
74 1       8.445490000000       1.073860000000       8.012910000000       0.031430282409      -0.131721829816      -0.009331449837
75 1       8.450020000000       6.272900000000       8.445490000000       0.131722007547       0.009423753305       0.031444322361
76 1       8.450020000000       8.012910000000       3.683560000000       0.131659008151      -0.009304417551       0.031270003101
77 1       1.073860000000       6.272900000000       3.683560000000      -0.131707379876       0.009385414908       0.031302868556
78 1       1.073860000000       8.012910000000       8.445490000000      -0.131721829816      -0.009331449837       0.031430282409
79 1       1.078380000000       3.688080000000       8.012910000000      -0.031296997411       0.131651807079      -0.009291671745
80 1       1.078380000000       5.835800000000       6.272900000000      -0.031336589978      -0.131696034066       0.009391959304
