80
Config_type=bulk_delta_phase Weight=1.0 Lattice="9.523875890 0.000000000 0.000000000 0.000000000 9.523875890 0.000000000 0.000000000 0.000000000 9.523875890" Energy=-679.71115460 Virial="-31.93047 0.00001 0.00000 0.00001 -31.93046 -0.00008 0.00000 -0.00008 -31.93048" pbc="T T T" Properties=species:S:1:pos:R:3:forces:R:3
Ga	      7.14291      2.38097      2.38097        -0.000074      0.000027      0.000011
Ga	      7.14291      4.41586      4.76194        -0.000060     -0.032345     -0.000015
Ga	      0.00000      7.14291      0.34608         0.000013     -0.000052      0.032347
Ga	      0.00000      2.38097      4.41586         0.000017      0.000016     -0.032369
Ga	      0.34608      0.00000      7.14291         0.032343      0.000007     -0.000055
Ga	      0.34608      4.76194      2.38097         0.032356     -0.000001      0.000026
Ga	      2.38097      4.41586      0.00000         0.000011     -0.032361      0.000020
Ga	      2.38097      7.14291      2.38097         0.000005     -0.000074      0.000023
Ga	      2.38097      2.38097      2.38097         0.000020      0.000016      0.000019
Ga	      2.38097      2.38097      7.14291         0.000024      0.000005     -0.000072
Ga	      2.38097      0.34608      4.76194         0.000028      0.032350     -0.000002
Ga	      4.41586      0.00000      2.38097        -0.032370      0.000022      0.000012
Ga	      4.41586      4.76194      7.14291        -0.032343     -0.000010     -0.000062
Ga	      4.76194      2.38097      0.34608        -0.000001      0.000022      0.032356
Ga	      4.76194      7.14291      4.41586        -0.000017     -0.000065     -0.032345
Ga	      7.14291      0.34608      0.00000        -0.000053      0.032341      0.000011
Ga	      2.38097      7.14291      7.14291         0.000036     -0.000076     -0.000061
Ga	      2.38097      9.17780      0.00000         0.000031     -0.032392      0.000020
Ga	      4.76194      2.38097      5.10802        -0.000007      0.000011      0.032326
Ga	      4.76194      7.14291      9.17780        -0.000002     -0.000057     -0.032364
Ga	      5.10802      4.76194      2.38097         0.032327     -0.000008      0.000019
Ga	      5.10802      0.00000      7.14291         0.032314      0.000029     -0.000072
Ga	      7.14291      9.17780      4.76194        -0.000058     -0.032366      0.000002
Ga	      7.14291      2.38097      7.14291        -0.000055      0.000036     -0.000076
Ga	      7.14291      7.14291      7.14291        -0.000056     -0.000059     -0.000062
Ga	      7.14291      7.14291      2.38097        -0.000073     -0.000056      0.000035
Ga	      7.14291      5.10802      0.00000        -0.000068      0.032312      0.000027
Ga	      9.17780      4.76194      7.14291        -0.032366      0.000000     -0.000059
Ga	      9.17780      0.00000      2.38097        -0.032388      0.000011      0.000028
Ga	      0.00000      7.14291      5.10802         0.000030     -0.000070      0.032315
Ga	      0.00000      2.38097      9.17780         0.000016      0.000031     -0.032394
Ga	      2.38097      5.10802      4.76194         0.000016      0.032333     -0.000011
O	      8.44549      5.83580      1.51097         0.007593      0.000567     -0.003706
O	      8.44549      3.68808      3.25097         0.007582     -0.000587      0.003680
O	      8.45002      1.51097      1.07838        -0.000642     -0.003746     -0.007439
O	      8.45002      3.25097      5.84032        -0.000617      0.003706     -0.007455
O	      1.07386      3.25097      1.07838         0.000615      0.003720     -0.007438
O	      1.07386      1.51097      5.84032         0.000608     -0.003747     -0.007451
O	      1.07838      8.45002      1.51097        -0.007442     -0.000639     -0.003747
O	      1.07838      1.07386      3.25097        -0.007447      0.000618      0.003713
O	      1.51097      5.84032      1.07386        -0.003758     -0.007465      0.000611
O	      1.51097      3.68356      3.68808        -0.003747      0.007423     -0.000647
O	      1.51097      1.07838      8.45002        -0.003744     -0.007437     -0.000641
O	      1.51097      8.44549      5.83580        -0.003718      0.007583      0.000573
O	      3.25097      3.68356      5.83580         0.004004      0.007531      0.000746
O	      3.25097      1.07838      1.07386         0.003718     -0.007452      0.000625
O	      3.25097      8.44549      3.68808         0.003701      0.007575     -0.000591
O	      3.25097      5.84032      8.45002         0.003694     -0.007460     -0.000618
O	      3.68356      3.68808      1.51097         0.007414     -0.000639     -0.003737
O	      3.68356      5.83580      3.25097         0.007542      0.000751      0.004019
O	      3.68808      1.51097      3.68356        -0.000635     -0.003742      0.007411
O	      3.68808      3.25097      8.44549        -0.000596      0.003684      0.007573
O	      5.83580      1.51097      8.44549         0.000574     -0.003724      0.007576
O	      5.83580      3.25097      3.68356         0.000750      0.004007      0.007537
O	      5.84032      8.45002      3.25097        -0.007463     -0.000617      0.003705
O	      5.84032      1.07386      1.51097        -0.007461      0.000601     -0.003744
O	      3.68356      1.07386      6.27290         0.007526      0.000719     -0.003918
O	      3.68356      8.45002      8.01291         0.007530     -0.000744      0.004007
O	      3.68808      6.27290      5.84032        -0.000723     -0.003911     -0.007566
O	      3.68808      8.01291      1.07838        -0.000757      0.004034     -0.007547
O	      5.83580      8.01291      5.84032         0.000714      0.004013     -0.007583
O	      5.83580      6.27290      1.07838         0.000725     -0.003912     -0.007555
O	      5.84032      3.68808      6.27290        -0.007553     -0.000730     -0.003919
O	      5.84032      5.83580      8.01291        -0.007576      0.000719      0.004001
O	      6.27290      1.07838      5.83580        -0.003917     -0.007574      0.000726
O	      6.27290      8.44549      8.45002        -0.003916      0.007677     -0.000714
O	      6.27290      5.84032      3.68808        -0.003922     -0.007549     -0.000725
O	      6.27290      3.68356      1.07386        -0.003925      0.007517      0.000724
O	      8.01291      8.44549      1.07386         0.003688      0.007579      0.000562
O	      8.01291      5.84032      5.83580         0.004012     -0.007585      0.000726
O	      8.01291      3.68356      8.45002         0.004020      0.007528     -0.000764
O	      8.01291      1.07838      3.68808         0.004018     -0.007551     -0.000754
O	      8.44549      8.45002      6.27290         0.007664     -0.000701     -0.003915
O	      8.44549      1.07386      8.01291         0.007578      0.000560      0.003691
O	      8.45002      6.27290      8.44549        -0.000697     -0.003915      0.007661
O	      8.45002      8.01291      3.68356        -0.000761      0.004018      0.007528
O	      1.07386      6.27290      3.68356         0.000717     -0.003934      0.007517
O	      1.07386      8.01291      8.44549         0.000558      0.003691      0.007581
O	      1.07838      3.68808      8.01291        -0.007553     -0.000758      0.004015
O	      1.07838      5.83580      6.27290        -0.007568      0.000718     -0.003910
