ITEM: TIMESTEP
0
ITEM: NUMBER OF ATOMS
160
ITEM: BOX BOUNDS pp pp pp
0.0000000000000000e+00 8.4420705480000002e+00
0.0000000000000000e+00 8.4420705480000002e+00
0.0000000000000000e+00 2.5326211644000001e+01
ITEM: ATOMS id type c_pe_atom
1 2      -4.738337827018
2 2      -4.559150937301
3 2      -4.556017668933
4 2      -4.703169491927
5 2      -4.691394662131
6 2      -4.757046220923
7 2      -4.610969530274
8 2      -4.555569866792
9 2      -4.584331731447
10 2      -4.557362209487
11 2      -4.541126188271
12 2      -4.690396710040
13 2      -4.740848939554
14 2      -4.681940954602
15 2      -4.553398107394
16 2      -4.570809366098
17 2      -4.624449419590
18 2      -4.749034065625
19 2      -4.609515183729
20 2      -4.569962256677
21 2      -5.074948511722
22 2      -5.025755775939
23 2      -5.212222250682
24 2      -4.879214443925
25 2      -5.020206261692
26 2      -5.315747054060
27 2      -5.290378682708
28 2      -4.842284036187
29 2      -5.275677713144
30 2      -5.142310369447
31 2      -5.016922263692
32 2      -5.004779610501
33 2      -4.979059861831
34 2      -4.938062233378
35 2      -4.976948852381
36 2      -4.907440846442
37 2      -5.146956791865
38 2      -4.957096614313
39 2      -5.280405476548
40 2      -5.295788937846
41 2      -5.013882215862
42 2      -5.103472402315
43 2      -5.022387278130
44 2      -4.976066314500
45 2      -4.945150060660
46 2      -4.923543317831
47 2      -4.996443559980
48 2      -5.151525058170
49 2      -4.994099054147
50 2      -5.298276306630
51 2      -5.314362897940
52 2      -4.981008627548
53 2      -4.896432787984
54 2      -4.983706156964
55 2      -4.977521561652
56 2      -4.966291396758
57 2      -5.021181390382
58 2      -5.013931953788
59 2      -4.971874979111
60 2      -5.284117139982
61 2      -4.932471657565
62 2      -4.888604207079
63 2      -4.891384494394
64 2      -4.908859401366
65 1     -10.931300172554
66 1     -10.990905269586
67 1     -10.901689994328
68 1     -10.934543591139
69 1     -10.908904018372
70 1     -10.773705419177
71 1     -10.914671624430
72 1     -10.605805119236
73 1     -10.871703083418
74 1     -10.596691028794
75 1     -10.876791452688
76 1     -10.853489630740
77 1     -11.071111069416
78 1     -10.884084059282
79 1     -10.885445719679
80 1     -10.811729047344
81 1     -10.864769491802
82 1     -10.958122741439
83 1     -10.854524411983
84 1     -10.892480603532
85 1     -11.099214304056
86 1     -10.939318794406
87 1     -10.964915519840
88 1     -10.878963148776
89 1     -10.876758048655
90 1     -10.927588193631
91 1     -10.605658319540
92 1     -10.969853519951
93 1     -10.882136561129
94 1     -10.941621470457
95 1     -10.810131770992
96 1     -10.783063724913
97 1     -10.780060232978
98 1     -10.777643467356
99 1     -10.873858001989
100 1     -10.882312110793
101 1     -10.955413439425
102 1     -10.595952104184
103 1     -10.561356912246
104 1     -10.874307894174
105 1     -10.602978251119
106 1     -10.882865475414
107 1     -10.925322852023
108 1     -10.840006814420
109 1     -10.900767918669
110 1     -11.005495135716
111 1     -10.946666215064
112 1     -10.877071198534
113 1     -11.084378372795
114 1     -10.945619117745
115 1     -10.913594396664
116 1     -10.901719065963
117 1     -10.916538485818
118 1     -10.955867584783
119 1     -10.902222498135
120 1     -11.083338977005
121 1     -10.893830866666
122 1     -10.886889565302
123 1     -10.788835898505
124 1     -10.884761121104
125 1     -10.859642662571
126 1     -10.970737857422
127 1     -10.977844331763
128 1     -10.950601921531
129 1     -10.889294238630
130 1     -10.906499106017
131 1     -11.067829439920
132 1     -10.975872271345
133 1     -10.902454120821
134 1     -10.813347319889
135 1     -10.959583463678
136 1     -11.054512770766
137 1     -10.786914576676
138 1     -10.946919087232
139 1     -10.987698396486
140 1     -10.786812795207
141 1     -10.926510416602
142 1     -10.939257712840
143 1     -10.803280936588
144 1     -10.937541055972
145 1     -10.891015295286
146 1     -10.556173444454
147 1     -10.962224541741
148 1     -10.810254321119
149 1     -11.000455628018
150 1     -10.887885462788
151 1     -10.910196071328
152 1     -10.838970641475
153 1     -11.002730611966
154 1     -11.077889314064
155 1     -10.841324756537
156 1     -10.851561095732
157 1     -10.954814573096
158 1     -11.069576763428
159 1     -10.604904434535
160 1     -10.817279629614
