ITEM: TIMESTEP
0
ITEM: NUMBER OF ATOMS
160
ITEM: BOX BOUNDS pp pp pp
0.0000000000000000e+00 8.2767117240000001e+00
0.0000000000000000e+00 8.2767117240000001e+00
0.0000000000000000e+00 2.4830135170999998e+01
ITEM: ATOMS id type x y z fx fy fz
1 2       1.202830000000       5.141680000000      21.825450000000      -0.283296461615       0.025620374161      -0.024209631062
2 2       5.138050000000       0.835200000000      13.518960000000      -0.028764441329       0.073714874662      -0.177918469309
3 2       7.067340000000       7.316760000000       7.305170000000      -0.064783307933      -0.194419448825      -0.194626159959
4 2       7.204000000000       7.046440000000      15.593990000000      -0.125775022953       0.448564450014       0.215701985242
5 2       5.160290000000       5.192890000000       0.970070000000       0.214768438644      -0.025632748475      -0.168313297621
6 2       2.994470000000       3.168440000000       7.132750000000       0.238636643886      -0.030047326598       0.139792064963
7 2       0.934280000000       1.037580000000       1.091940000000      -0.011553135204      -0.040209731753      -0.062110765717
8 2       5.107150000000       1.025320000000       5.182260000000       0.033272747173      -0.028961422029      -0.190336759671
9 2       3.143540000000       2.922870000000      15.461720000000      -0.067020827514       0.037287431124      -0.002716871518
10 2       5.324610000000       1.100840000000      21.660550000000       0.047614204098      -0.125614523273       0.214290674088
11 2       3.094850000000       7.163960000000      11.382850000000       0.035311985699       0.102131550968      -0.163265667670
12 2       7.332450000000       3.157060000000      19.583050000000      -0.126128388637      -0.366715111159      -0.041099204518
13 2       1.007650000000       5.035220000000      13.335410000000      -0.048512976582       0.282636205436       0.106152230193
14 2       7.245670000000       3.177520000000       3.166500000000      -0.263866005955       0.019393126945       0.168277728573
15 2       5.040350000000       5.279890000000       9.257740000000       0.203831551161      -0.007070688656       0.201236419176
16 2       7.269930000000       7.347700000000      23.825360000000       0.082392758384      -0.007679501078       0.024564365744
17 2       3.158580000000       7.368550000000      19.714240000000       0.001247932286      -0.051213458824      -0.038956994970
18 2       0.898990000000       1.067720000000       9.405950000000       0.006162393215      -0.241188618858      -0.126263577531
19 2       3.192750000000       7.337600000000       3.044560000000      -0.013374403763       0.025401142920       0.006862143931
20 2       1.160130000000       1.027360000000      17.615970000000      -0.056020114054      -0.109502632486      -0.097262444482
21 2       3.874130000000       0.195640000000       8.290100000000       0.068119256705      -0.007771297118       0.044870007447
22 2       6.069930000000       6.037810000000      12.391070000000       0.274637999702       0.105141919897      -0.221297209695
23 2       2.138190000000       2.123350000000      20.708730000000      -0.048952684013      -0.229503451287      -0.001752933344
24 2       6.328770000000       6.215650000000      20.648280000000      -0.014848950161       0.090580829852       0.355966685722
25 2       1.933960000000       6.319330000000       8.184140000000      -0.096510916353      -0.066976192731      -0.041817995217
26 2       8.236400000000       2.035740000000       6.169300000000      -0.201663850343      -0.112759248785       0.041293897033
27 2       1.972460000000       2.067420000000       4.178220000000       0.035324126281      -0.072284003888      -0.138410780160
28 2       0.039410000000       1.989310000000      14.435220000000       0.038180697996       0.008971753478       0.399756673470
29 2       0.170680000000       6.130470000000      18.581530000000      -0.045783927747       0.284825642007       0.185633467871
30 2       6.197410000000       0.056160000000       2.078680000000       0.026605341345      -0.014875701020      -0.041629717430
31 2       6.027070000000       0.076710000000      10.408530000000       0.386116129803      -0.194950599632       0.168023891751
32 2       4.131110000000       2.172510000000      18.575070000000       0.269666867900      -0.079035834771      -0.237437980935
33 2       6.337330000000       8.228340000000      18.621120000000      -0.257729990260       0.422352628148      -0.146990025841
34 2       6.278640000000       2.043130000000      16.543170000000      -0.082668737507      -0.546916484136       0.229568780273
35 2       0.159300000000       2.049170000000      22.814680000000      -0.156858930972       0.182130778641       0.114723195856
36 2       2.004420000000       8.060810000000      14.582740000000      -0.139718084524       0.077005431335       0.134987923852
37 2       3.968920000000       5.950430000000      14.493270000000       0.123842035349       0.060520417036       0.067223027044
38 2       6.191400000000       4.159170000000       6.220640000000      -0.343741970736       0.190475502227      -0.258463951360
39 2       4.156150000000       6.314270000000      22.802070000000       0.265502494201       0.370432883796      -0.085009764031
40 2       0.099950000000       4.140990000000      16.556000000000       0.114692983816      -0.258451581833      -0.031677113090
41 2       2.062570000000       4.191720000000       2.067850000000      -0.000241717807      -0.004851862142       0.013805927220
42 2       4.099800000000       4.251570000000      20.641260000000       0.152127935496       0.013971279448      -0.287282262409
43 2       4.101910000000       8.078510000000      16.618310000000       0.381977227110       0.186266170495       0.099240122842
44 2       6.215700000000       4.194050000000      22.727990000000       0.408254023917      -0.130234022588       0.267404127222
45 2       8.212800000000       6.125220000000      10.333560000000      -0.181525140951       0.297858924556       0.202815671916
46 2       8.257480000000       8.218300000000      12.432210000000      -0.165937261016      -0.238200306989      -0.140221554040
47 2       0.047010000000       4.221700000000       0.027700000000      -0.447369305749      -0.023199735440      -0.235487990618
48 2       6.152790000000       4.020440000000      14.460290000000       0.018136810587       0.032374201362      -0.287393580372
49 2       4.076530000000       4.149600000000       4.112400000000       0.418734387238       0.100792571183       0.204790271201
50 2       2.106940000000       2.012350000000      12.337840000000       0.161021140527      -0.126868704183       0.218401942861
51 2       2.071990000000       4.058200000000      10.359130000000       0.105377963419       0.246435022688      -0.126250454572
52 2       0.037420000000       6.346170000000       2.172700000000       0.081416045678      -0.084952301121      -0.077547629987
53 2       0.201350000000       8.238920000000      20.794210000000      -0.178247351271      -0.141171283014       0.039335868036
54 2       4.072850000000       2.027210000000       1.957400000000      -0.058735003799       0.102848819483       0.056166816691
55 2       6.129150000000       2.037150000000      24.785660000000       0.079678726254       0.222197678155      -0.190926760463
56 2       8.244750000000       4.099860000000       8.274440000000       0.048061131591      -0.028984116695      -0.027834274762
57 2       6.019990000000       2.144280000000       8.379750000000       0.079901983612       0.111978606189      -0.029683534623
58 2       3.968520000000       6.348820000000       6.147140000000       0.122858679503      -0.372318689014      -0.156842986885
59 2       6.263760000000       6.340490000000       4.188610000000      -0.036590081381      -0.290688452601       0.143513613747
60 2       2.154020000000       6.312980000000      24.793560000000      -0.143930968446       0.089948475006       0.110984794316
61 2       5.115480000000       3.087920000000      11.423270000000      -0.315684540640       0.052207520528       0.101975851822
62 2       3.134630000000       1.073450000000      23.774990000000       0.071337484512      -0.485437840498       0.012527324815
63 2       3.144970000000       5.104940000000      17.585110000000      -0.250069789527      -0.062815992721      -0.013780593238
64 2       0.975590000000       7.298620000000       5.162860000000      -0.015869324169       0.326567226978      -0.039064839424
65 1       2.091960000000       2.127680000000       2.101200000000       0.107463809108       0.180225224234       0.111968801919
66 1       6.065680000000       6.163710000000       6.173430000000       0.116284335755       0.009986542270      -0.079616709767
67 1       4.168610000000       8.228550000000       6.343140000000       0.105910743726       0.075821252165      -0.045610886780
68 1       4.252020000000       0.127020000000       2.028360000000       0.011325021028       0.014905589149       0.136958223358
69 1       8.166110000000       6.240510000000       4.082640000000       0.278798067205      -0.189252814936       0.232834031596
70 1       0.022530000000       2.117430000000       4.213290000000       0.167169465351       0.131575315139       0.245879863695
71 1       6.138560000000       4.129740000000       8.244550000000       0.290581262107      -0.140908399245      -0.123028539973
72 1       1.922790000000       4.365670000000       0.195730000000      -0.069720647474       0.027839300447       0.046181683406
73 1       8.273270000000       4.292210000000       2.043020000000       0.241351313884       0.044867147455      -0.151848308085
74 1       8.060950000000       3.988770000000       6.404780000000      -0.068673777301      -0.102371305179       0.105446033866
75 1       4.224440000000       2.127060000000       0.041760000000      -0.291862210010       0.244633964287      -0.177042334329
76 1       3.966540000000       6.320580000000       8.149970000000      -0.082215582786       0.060315312498      -0.046510866824
77 1       2.090140000000       0.080540000000       4.117180000000       0.018976811886       0.125064429061       0.007190835660
78 1       6.089420000000       8.231480000000       4.044200000000      -0.109128098016       0.116889065498       0.012116337439
79 1       2.063490000000       6.271060000000       6.265110000000      -0.209370735009      -0.160249818094      -0.219947548319
80 1       6.146270000000       2.104850000000       2.005940000000      -0.074007809571      -0.073916695856      -0.093039117068
81 1       4.127360000000       4.081020000000       2.090770000000      -0.248989753407      -0.032722515307       0.183609492220
82 1       4.174230000000       4.277950000000       6.108710000000      -0.214328550445      -0.167650811762       0.101474455939
83 1       8.075610000000       2.078570000000       8.249480000000       0.026420174155       0.297104300919      -0.197418740217
84 1       0.047390000000       6.226990000000       0.093420000000       0.185706951149      -0.102765208929      -0.127350637067
85 1       8.134050000000       0.065360000000       6.222560000000       0.086846474682       0.091283410375      -0.059316215901
86 1       8.144920000000       8.250850000000       2.108410000000       0.013252802098      -0.009792652184      -0.153663540919
87 1       4.191920000000       6.163700000000       4.173250000000      -0.192856718444       0.083706859277       0.020865422726
88 1       4.070560000000       2.145250000000       4.051920000000      -0.158429694797       0.043940545842       0.085921566473
89 1       6.176810000000       2.143950000000       6.281100000000       0.142476316344       0.024864739227      -0.038821781407
90 1       2.028970000000       6.252100000000       2.034090000000      -0.121956655053      -0.175967468125      -0.073050113080
91 1       2.201570000000       4.015630000000       3.937870000000       0.073265993226      -0.010874344047      -0.027619514079
92 1       6.084090000000       4.265130000000       4.213940000000       0.108552045520       0.012688900164      -0.038516603842
93 1       6.289060000000       0.144710000000       0.109860000000       0.116157250197      -0.043386249978       0.033968103089
94 1       1.989380000000       8.233110000000       8.388780000000       0.157613015732       0.173413966634       0.157709531524
95 1       6.247690000000       6.274110000000       2.131200000000       0.078663903190       0.061077870608       0.111565708338
96 1       1.908870000000       2.103780000000       6.109140000000      -0.062859419942      -0.011626222635      -0.001597726878
97 1       2.026250000000       2.114090000000      10.403000000000       0.025285382448       0.039429050327       0.096927156269
98 1       6.125280000000       6.052750000000      14.412890000000      -0.169541742651      -0.194337585754      -0.149551888958
99 1       4.056460000000       8.081360000000      14.619910000000       0.032443813878      -0.155910912346       0.095165161053
100 1       4.145490000000       8.140750000000      10.226670000000      -0.133417093950      -0.073269486443       0.087166852202
101 1       8.138260000000       6.213830000000      12.332310000000       0.031531767044      -0.153556025781      -0.019117579042
102 1       0.148690000000       1.810920000000      12.569650000000       0.028494820340      -0.063928119554      -0.083010917350
103 1       6.442280000000       3.901350000000      16.348940000000       0.004291933773       0.096540104594      -0.010433358054
104 1       1.997730000000       4.264810000000       8.297170000000      -0.270071494867      -0.053895296225       0.161381955089
105 1       0.107170000000       4.257960000000      10.144070000000       0.033500158147       0.018586010229      -0.053637031637
106 1       8.268850000000       3.972830000000      14.506590000000      -0.161066884287      -0.028854457180       0.117241396204
107 1       4.104140000000       2.084600000000       8.161530000000      -0.206885924255      -0.133216649218      -0.187589315834
108 1       4.124040000000       6.190490000000      16.441540000000       0.131905272417      -0.092966706172       0.250633569216
109 1       1.995020000000       8.230370000000      12.483050000000      -0.007847936424       0.079603100329      -0.138034826231
110 1       6.251760000000       8.109970000000      12.376550000000      -0.064353041643       0.184192282392       0.046854126409
111 1       2.066610000000       6.162900000000      14.366800000000       0.130838441052      -0.291167272792      -0.219726317142
112 1       6.098880000000       1.986780000000      10.291270000000       0.223923244272       0.204933311945       0.175898194514
113 1       4.054230000000       4.191290000000      10.352070000000      -0.114710918568      -0.106999997622       0.157344458525
114 1       4.222980000000       4.062110000000      14.525500000000       0.032649612040       0.128179263460       0.122014327585
115 1       0.021810000000       2.015070000000      16.455210000000      -0.013632665399       0.218448113052       0.111216817115
116 1       8.220710000000       6.205370000000       8.307640000000       0.117014970401      -0.287303000464       0.111687777380
117 1       0.023940000000       8.175900000000      14.483740000000       0.136376465941       0.138280599872      -0.207476149193
118 1       8.093420000000       8.144070000000      10.433060000000       0.191219845314       0.181581974851      -0.061653194029
119 1       4.191430000000       6.244350000000      12.552240000000      -0.047488760337       0.080501606246       0.025812948694
120 1       4.093960000000       1.920010000000      12.458980000000      -0.118879970541      -0.004736630364      -0.070304234140
121 1       6.292510000000       1.949570000000      14.517500000000       0.099567464436       0.267639516208       0.055174073744
122 1       1.959160000000       6.129700000000      10.271140000000      -0.033571104640      -0.107844006638       0.042001527709
123 1       2.058500000000       3.963700000000      12.296800000000      -0.037552066594      -0.052050760771      -0.099081591286
124 1       6.185080000000       4.137230000000      12.522800000000       0.111242417593      -0.208573140011      -0.213023379136
125 1       6.022260000000       0.107120000000       8.407860000000      -0.062550556792       0.089032124261       0.053873132400
126 1       2.195150000000       0.018210000000      16.482280000000      -0.092824573308       0.094238265936       0.046823294750
127 1       6.210600000000       6.254810000000      10.391400000000      -0.008735846374      -0.179480517476       0.094912114245
128 1       2.054540000000       1.842520000000      14.402120000000      -0.242263609291       0.173033609065      -0.182368079314
129 1       2.237510000000       2.003700000000      18.737930000000      -0.020814781286      -0.084676675242       0.048763340149
130 1       6.256170000000       6.226680000000      22.670740000000      -0.173442958337      -0.056422436240       0.088385972470
131 1       4.275330000000       0.028210000000      22.725210000000       0.065458385774      -0.150759948707       0.094116418484
132 1       4.319850000000       0.076100000000      18.574620000000      -0.136501626454      -0.333598095998       0.131324099512
133 1       0.099390000000       6.259650000000      20.703520000000      -0.103672021435       0.085242561399      -0.231652176497
134 1       0.100230000000       2.049220000000      20.754550000000       0.193366034525       0.073273570771       0.106767182349
135 1       6.318750000000       4.111270000000      24.744720000000      -0.132432109467       0.007178862869       0.051630927007
136 1       2.078860000000       3.986880000000      16.532270000000      -0.034765632350       0.003549958319       0.066468900539
137 1       0.098070000000       4.185020000000      18.503970000000      -0.139315817504       0.205989754517      -0.234841322996
138 1       8.234010000000       4.103230000000      22.849210000000       0.151137844592       0.094787047975      -0.038996458649
139 1       4.282650000000       1.906160000000      16.613020000000      -0.052622563586       0.308829889812      -0.140429891061
140 1       4.109450000000       6.253470000000      24.747000000000      -0.195058136213      -0.163234596721      -0.198653670932
141 1       2.085810000000       0.150380000000      20.729560000000       0.070089233978       0.055300788492      -0.138904096807
142 1       6.410290000000       8.274560000000      20.621650000000      -0.052764470598      -0.239562570917      -0.123758423700
143 1       2.208870000000       6.275930000000      22.860020000000       0.001161573211      -0.058709108660       0.042877909368
144 1       6.223560000000       1.968700000000      18.550980000000      -0.004064958051       0.133162642554      -0.017354022016
145 1       4.213080000000       4.077060000000      18.715290000000       0.172470288135       0.219443913417      -0.291990492731
146 1       4.362410000000       4.382440000000      22.536540000000      -0.078755337016       0.017091416184       0.021048228592
147 1       8.206520000000       2.211800000000      24.794650000000       0.207796398366      -0.069184872526      -0.036630943339
148 1       0.072210000000       6.078360000000      16.630590000000       0.050398914796      -0.088448159678       0.175986762841
149 1       8.230640000000       0.147690000000      22.685810000000      -0.135420691338      -0.023572342954       0.076704664467
150 1       0.061230000000       8.236410000000      18.714830000000       0.004102536439      -0.180896416534      -0.190172856307
151 1       4.309470000000       6.273130000000      20.720580000000       0.055133566777      -0.239212644951       0.078099233988
152 1       4.200990000000       2.173840000000      20.598200000000      -0.111921592295       0.238506092247       0.003171358065
153 1       6.344590000000       2.208690000000      22.806410000000      -0.104055821788      -0.011817817375       0.012685350170
154 1       2.131120000000       6.245860000000      18.660410000000       0.057402887331       0.054869670595       0.028009518877
155 1       2.188000000000       4.065740000000      20.718220000000       0.136818621981      -0.112950525749       0.111368039376
156 1       6.272290000000       4.229810000000      20.713970000000      -0.271587406539       0.064258568190       0.141245314826
157 1       6.174550000000       0.011340000000      16.620470000000       0.079579205090      -0.036372288923      -0.001843594352
158 1       2.041460000000       0.016400000000       0.022160000000      -0.050554993778      -0.038906990582      -0.024302179883
159 1       6.505340000000       6.355300000000      18.782380000000       0.082235274739      -0.002948967945      -0.022414246416
160 1       2.046300000000       2.100610000000      22.679260000000       0.180256114864       0.135811600936       0.130475507738
