ITEM: TIMESTEP
0
ITEM: NUMBER OF ATOMS
40
ITEM: BOX BOUNDS pp pp pp
0.0000000000000000e+00 8.8197354570000002e+00
0.0000000000000000e+00 5.1360088230000001e+00
0.0000000000000000e+00 9.4373760949999994e+00
ITEM: ATOMS id type x y z fx fy fz
1 2       1.383540000000       1.590520000000       8.380740000000      -0.097480695805       0.064101158051      -0.017348984795
2 2       3.135610000000       4.158520000000       8.380740000000       0.097492933370       0.064139451247      -0.017295625775
3 2       5.809150000000       0.906450000000       7.537880000000       0.108990142832      -0.151550675041      -0.000498826926
4 2       7.529730000000       3.474460000000       7.537880000000      -0.108978904177      -0.151689047383      -0.000476484634
5 2       4.750400000000       3.477920000000       5.626410000000      -0.118942489642       0.031922415804       0.106235199874
6 2       1.480770000000       3.525360000000       5.752380000000      -0.093419079844       0.072015835151      -0.202997864105
7 2       3.038380000000       0.957350000000       5.752380000000       0.093374834016       0.072158217079      -0.203020560107
8 2       8.588490000000       0.909910000000       5.626410000000       0.118935573954       0.032044583594       0.106254438112
9 2       1.399310000000       1.661190000000       2.819010000000       0.106223485024       0.151053226846       0.002608879437
10 2       3.119840000000       4.229190000000       2.819020000000      -0.106110139897       0.151114501952       0.002437794942
11 2       5.792270000000       0.978300000000       3.662050000000      -0.094984460877      -0.046124154604      -0.008103388601
12 2       7.546620000000       3.546300000000       3.662040000000       0.094950222903      -0.046064355902      -0.007957922692
13 2       4.179520000000       1.658500000000       0.908030000000       0.118844057838      -0.029977106482       0.102799628823
14 2       5.890460000000       4.178640000000       1.033400000000      -0.093235460328      -0.071285288929      -0.201624738866
15 2       7.448430000000       1.610640000000       1.033400000000       0.093207924642      -0.071421576019      -0.201652145118
16 2       0.339630000000       4.226510000000       0.908030000000      -0.118792559153      -0.030024278067       0.102801908384
17 1       7.364440000000       1.786940000000       4.447740000000       0.006791734252      -0.079944544304      -0.087834964970
18 1       0.039740000000       0.780790000000       0.046080000000       0.013832468272       0.071369196707       0.159963801410
19 1       7.396020000000       0.092660000000       6.974340000000       0.091372378578       0.039113220532      -0.107933983866
20 1       7.321410000000       4.990010000000       2.138370000000      -0.014526705651       0.141841280949       0.007060119879
21 1       5.974450000000       4.354950000000       4.447740000000      -0.006763851376      -0.080047177540      -0.087854096903
22 1       7.476600000000       3.359670000000       9.419900000000       0.066378999900       0.029768065265       0.123640308743
23 1       5.942860000000       2.660670000000       6.974340000000      -0.091388749220       0.038988021373      -0.107921716723
24 1       6.017490000000       2.422000000000       2.138370000000       0.014444403682       0.141955723159       0.007108527676
25 1       1.451890000000       1.776140000000       4.701270000000      -0.067006560447      -0.031107679646       0.124547026501
26 1       2.955490000000       0.781820000000       9.166590000000       0.008067401694       0.080974789783      -0.086308642772
27 1       1.609110000000       0.144860000000       6.858140000000       0.007448878610      -0.159578866513       0.014058146430
28 1       1.533060000000       5.042880000000       2.255700000000      -0.094121973479      -0.038639492527      -0.108066158321
29 1       0.070110000000       4.355900000000       4.764840000000      -0.011258102490      -0.072870708172       0.161262824823
30 1       1.563660000000       3.349820000000       9.166590000000      -0.008128231357       0.081067952660      -0.086216833625
31 1       0.153070000000       2.444870000000       6.924260000000       0.040136631093      -0.029031223685       0.009770399366
32 1       8.775530000000       2.690680000000       2.205850000000      -0.038066739161       0.027905128171       0.008562932483
33 1       4.449040000000       1.787890000000       4.764840000000       0.011237436902      -0.072727080923       0.161354548780
34 1       5.862280000000       0.791670000000       9.419900000000      -0.066318847852       0.029732324045       0.123634220701
35 1       4.366070000000       5.012870000000       6.924260000000      -0.040077867092      -0.028996016099       0.009777697335
36 1       4.563360000000       0.122680000000       2.205850000000       0.038039415496       0.027776238234       0.008622876271
37 1       3.067260000000       4.344140000000       4.701270000000       0.067017268803      -0.031113645535       0.124638629868
38 1       4.479410000000       3.348800000000       0.046080000000      -0.013828058160       0.071262531654       0.160025771513
39 1       2.910030000000       2.712860000000       6.858150000000      -0.007441645735      -0.159556191240       0.013973856477
40 1       2.986100000000       2.474870000000       2.255700000000       0.094084929885      -0.038554753645      -0.108026599029
