ITEM: TIMESTEP
0
ITEM: NUMBER OF ATOMS
40
ITEM: BOX BOUNDS pp pp pp
0.0000000000000000e+00 8.8197354570000002e+00
0.0000000000000000e+00 5.1360088230000001e+00
0.0000000000000000e+00 9.4373760949999994e+00
ITEM: ATOMS id type v_vir_xx v_vir_yy v_vir_zz v_vir_xy v_vir_xz v_vir_yz
1 2      -1.331326367126      -1.751795799183      -1.922419624260       0.662239861163       1.034906347071      -1.103119572343
2 2      -1.331355193354      -1.751759577404      -1.922438731119      -0.662212780231      -1.034887688390      -1.103074914144
3 2      -3.026731009969      -3.558360953979      -2.859432681776      -0.516831351723      -0.354292219423       0.698608748730
4 2      -3.026721747220      -3.558455282614      -2.859421643399       0.516853539275       0.354310882130       0.698658081676
5 2      -1.924051126940      -1.894842147606      -1.640458375519      -0.339563500518       0.729094103241      -0.107407430587
6 2      -2.030782473350      -2.483424539469      -3.599083864764       0.411808737262      -0.603157616180      -1.228764113396
7 2      -2.030811990835      -2.483473644890      -3.599109016434      -0.411860612212       0.603145377121      -1.228734873739
8 2      -1.924035897315      -1.894839901120      -1.640437004021       0.339564444456      -0.729125739747      -0.107440249601
9 2      -3.028369275309      -3.558107251664      -2.853907407222       0.515271284164      -0.353984644359      -0.699814761031
10 2      -3.028319256099      -3.558025515806      -2.853998624157      -0.515234169195       0.353923730207      -0.699831881728
11 2      -1.340834861662      -1.769685741077      -1.931350444317      -0.662085446030       1.040366799528       1.091782081340
12 2      -1.340815492284      -1.769553909112      -1.931347787599       0.662075308810      -1.040325774543       1.091773701866
13 2      -1.917929356588      -1.918648181705      -1.646857291909      -0.338699099844      -0.727087348751       0.103478280056
14 2      -2.024399773660      -2.458953874122      -3.600492529824      -0.411251961289      -0.603401085950       1.239533668682
15 2      -2.024447306219      -2.458983183035      -3.600518086353       0.411268286922       0.603461336598       1.239499279409
16 2      -1.917895820786      -1.918677537083      -1.646853472947       0.338685210822       0.727126945549       0.103570266348
17 1       0.778794189975       1.372280458335       0.943720214768       0.355669547050       0.859476455029      -0.796159329928
18 1       0.376485459838       0.940700017140       1.218764590500      -0.378190098925      -0.942889668021      -0.461778246947
19 1       1.539058549254       1.156634018032       1.053569528927      -0.391843887284      -0.493361158005      -0.767721410483
20 1       2.441495323998       2.669476723978       2.951228006344      -0.275194362740      -0.660290925178      -0.950386805674
21 1       0.778828194885       1.372287419832       0.943722033186      -0.355692332386      -0.859503451555      -0.796117412598
22 1       2.191233573015       1.985692694846       2.183118308494      -0.083137912051      -0.130774162566      -0.362143797710
23 1       1.539038896742       1.156775174737       1.053569643555       0.391853848128       0.493328720013      -0.767757915103
24 1       2.441495900586       2.669478894340       2.951255830710       0.275221268243       0.660270426261      -0.950382544839
25 1       2.194577994074       1.989344570902       2.183920483851      -0.083506400384       0.130106983446       0.357012856118
26 1       0.777879770359       1.355560740422       0.939850804304      -0.352147873521       0.859913570528       0.798235184617
27 1       2.436722688126       2.714471142169       2.957071341558      -0.271714641714       0.661637114355       0.931114361285
28 1       1.537096480275       1.150178540235       1.050659371831      -0.391408899940       0.492070466080       0.755572499185
29 1       0.376221285391       0.945979630151       1.220450002296      -0.382135603994       0.940509066484       0.461717956214
30 1       0.777896958531       1.355542749230       0.939909447083       0.352140288734      -0.859940366482       0.798226212539
31 1       1.629097716571       2.556880855931       2.321169706857      -0.005480923259       0.186629720408       0.004212001188
32 1       1.629882997156       2.555418391533       2.320557654854      -0.006122000017      -0.185529385312      -0.012023074855
33 1       0.376235790881       0.946090507234       1.220439218583       0.382212214117      -0.940492936947       0.461713931743
34 1       2.191250288194       1.985712859402       2.183134949984       0.083130097884       0.130763635019      -0.362133952278
35 1       1.629158112714       2.556905153267       2.321179211266       0.005498533733      -0.186632443766       0.004227795531
36 1       1.629902167049       2.555462212999       2.320555738587       0.006156210969       0.185498228976      -0.012023752840
37 1       2.194617144288       1.989327497216       2.183852526867       0.083496162912      -0.130100582690       0.357014601393
38 1       0.376450594370       0.940730666550       1.218763111546       0.378216428594       0.942857662464      -0.461808096525
39 1       2.436709136347       2.714500561376       2.957056125601       0.271696173661      -0.661633287991       0.931115103390
40 1       1.537129138735       1.150173040455       1.050624423329       0.391414796365      -0.492067084385       0.755569350908
