ITEM: TIMESTEP
0
ITEM: NUMBER OF ATOMS
80
ITEM: BOX BOUNDS pp pp pp
0.0000000000000000e+00 8.8021311939999993e+00
0.0000000000000000e+00 1.0251514617000000e+01
0.0000000000000000e+00 9.4185390170000005e+00
ITEM: ATOMS id type x y z fx fy fz
1 2       1.380860000000       1.586610000000       8.361860000000      -0.092810247423       0.084060852897       0.002275112094
2 2       3.129270000000       4.149490000000       8.361870000000       0.092807121283       0.084013770728       0.002172024908
3 2       5.797020000000       0.904640000000       7.522280000000       0.109807735180      -0.148699607286       0.001557089521
4 2       7.515240000000       3.467520000000       7.522290000000      -0.109811058710      -0.148737554861       0.001508655278
5 2       4.740230000000       3.471550000000       5.615480000000      -0.112753669900       0.016338640850       0.081621858988
6 2       1.478190000000       3.518790000000       5.740370000000      -0.103182482376       0.068567544306      -0.216157418323
7 2       3.031930000000       0.955910000000       5.740370000000       0.103309590091       0.068621277905      -0.216217977886
8 2       8.572030000000       0.908670000000       5.615480000000       0.112729455746       0.016369486134       0.081629837302
9 2       1.395880000000       1.657750000000       2.812780000000       0.107324513090       0.150531418627       0.004331822465
10 2       3.114260000000       4.220620000000       2.812780000000      -0.107383962272       0.150760484229       0.004354657405
11 2       5.780750000000       0.977130000000       3.652740000000      -0.088088089560      -0.086510088625       0.000600408463
12 2       7.531510000000       3.540010000000       3.652740000000       0.088112306238      -0.086488524788       0.000591458422
13 2       4.171890000000       1.654660000000       0.906340000000       0.113302595755      -0.015155276254       0.080056531421
14 2       5.878990000000       4.169840000000       1.030800000000      -0.100505316090      -0.067391796086      -0.213126161150
15 2       7.433270000000       1.606960000000       1.030800000000       0.100571818723      -0.067379964131      -0.213119031278
16 2       0.338240000000       4.217540000000       0.906350000000      -0.113261150859      -0.015149826045       0.079937809316
17 2       1.380860000000       6.712370000000       8.361860000000      -0.092810228555       0.084021955853       0.002288314386
18 2       3.129270000000       9.275250000000       8.361870000000       0.092806799981       0.083951880358       0.002169836880
19 2       5.797020000000       6.030400000000       7.522280000000       0.109779005763      -0.148833098022       0.001572267827
20 2       7.515240000000       8.593280000000       7.522290000000      -0.109840266114      -0.148828832259       0.001516887146
21 2       4.740230000000       8.597310000000       5.615480000000      -0.112766180065       0.016282208570       0.081653113328
22 2       1.478190000000       8.644550000000       5.740370000000      -0.103177626228       0.068528871263      -0.216147277835
23 2       3.031930000000       6.081670000000       5.740370000000       0.103319333038       0.068567956368      -0.216213434221
24 2       8.572030000000       6.034430000000       5.615480000000       0.112759374383       0.016305607202       0.081667940340
25 2       1.395880000000       6.783500000000       2.812780000000       0.107296342660       0.150638296567       0.004333575796
26 2       3.114260000000       9.346380000000       2.812780000000      -0.107441556656       0.150628038734       0.004330308528
27 2       5.780750000000       6.102890000000       3.652740000000      -0.088151802219      -0.086510971158       0.000580620606
28 2       7.531510000000       8.665760000000       3.652740000000       0.088129163106      -0.086432496933       0.000589747224
29 2       4.171890000000       6.780420000000       0.906340000000       0.113306888885      -0.015178810415       0.080042516972
30 2       5.878990000000       9.295600000000       1.030800000000      -0.100493905461      -0.067419950160      -0.213114309793
31 2       7.433270000000       6.732720000000       1.030800000000       0.100588693557      -0.067421060898      -0.213150897237
32 2       0.338240000000       9.343300000000       0.906350000000      -0.113264899250      -0.015128933295       0.079940835597
33 1       7.349730000000       1.783640000000       4.439890000000       0.020262368917      -0.069541719631      -0.092848432686
34 1       0.039360000000       0.779290000000       0.044850000000       0.004484535009       0.069436440428       0.151021445867
35 1       7.382090000000       0.092900000000       6.960740000000       0.099690294412       0.034845383206      -0.086540002799
36 1       7.308120000000      10.107380000000       2.135970000000      -0.004290232438       0.178904794685       0.020121320120
37 1       5.962530000000       4.346520000000       4.439890000000      -0.020257366876      -0.069548747579      -0.092880288736
38 1       7.461370000000       3.353520000000       9.401810000000       0.058274594907       0.030510159213       0.111308259506
39 1       5.930170000000       2.655790000000       6.960740000000      -0.099706607734       0.034619640324      -0.086476062885
40 1       6.004150000000       2.418740000000       2.135970000000       0.004232552732       0.178966305690       0.020125931888
41 1       1.449250000000       1.771970000000       4.692640000000      -0.058888173798      -0.031646425254       0.111949193486
42 1       2.949620000000       0.779980000000       9.149270000000       0.020818066617       0.070774770926      -0.092124299587
43 1       1.604400000000       0.143010000000       6.846310000000      -0.000249714854      -0.176376041405       0.019206099732
44 1       1.529150000000      10.158080000000       2.251440000000      -0.100739550308      -0.035240842059      -0.086399874375
45 1       0.070170000000       4.347190000000       4.754090000000       0.000950458481      -0.070671289668       0.154849769319
46 1       1.560510000000       3.342860000000       9.149270000000      -0.020860455520       0.070760858036      -0.092073632556
47 1       0.153440000000       2.439670000000       6.910750000000       0.034023884618      -0.016016095306       0.024254965457
48 1       8.757190000000       2.685730000000       2.201690000000      -0.028453239445       0.013300458111       0.024247010910
49 1       4.439960000000       1.784310000000       4.754090000000      -0.000995756923      -0.070689831602       0.154896471552
50 1       5.850890000000       0.790640000000       9.401810000000      -0.058292758787       0.030525074980       0.111177445994
51 1       4.356690000000      10.128300000000       6.910740000000      -0.034069925999      -0.015932220026       0.024368964902
52 1       4.555080000000       0.122850000000       2.201690000000       0.028365308250       0.013304672434       0.024250582095
53 1       3.060880000000       4.334840000000       4.692640000000       0.058859648863      -0.031587894769       0.111932561448
54 1       4.470770000000       3.342160000000       0.044850000000      -0.004443819822       0.069551128837       0.151030266041
55 1       2.905720000000       2.705890000000       6.846320000000       0.000266153109      -0.176441070011       0.019122595939
56 1       2.980980000000       2.469450000000       2.251440000000       0.100879153463      -0.035415411683      -0.086516248770
57 1       7.349730000000       6.909390000000       4.439890000000       0.020290762090      -0.069473361553      -0.092879900033
58 1       0.039360000000       5.905040000000       0.044850000000       0.004468998761       0.069548859868       0.151009655725
59 1       7.382090000000       5.218660000000       6.960740000000       0.099710550763       0.034778636615      -0.086515085970
60 1       7.308120000000       4.981620000000       2.135970000000      -0.004284090841       0.178932603013       0.020106302447
61 1       5.962530000000       9.472270000000       4.439890000000      -0.020228269790      -0.069476794718      -0.092915061756
62 1       7.461370000000       8.479280000000       9.401810000000       0.058283814257       0.030503860455       0.111300505807
63 1       5.930170000000       7.781540000000       6.960740000000      -0.099672777804       0.034779550014      -0.086505979543
64 1       6.004150000000       7.544500000000       2.135970000000       0.004252697595       0.178961437499       0.020141248928
65 1       1.449250000000       6.897730000000       4.692640000000      -0.058906017468      -0.031659215088       0.111929296262
66 1       2.949620000000       5.905740000000       9.149270000000       0.020823932604       0.070726247917      -0.092140304389
67 1       1.604400000000       5.268770000000       6.846310000000      -0.000263740207      -0.176393381158       0.019183892707
68 1       1.529150000000       5.032320000000       2.251440000000      -0.100752240406      -0.035282085530      -0.086402168132
69 1       0.070170000000       9.472950000000       4.754090000000       0.000915457149      -0.070730887061       0.154817722230
70 1       1.560510000000       8.468620000000       9.149270000000      -0.020874551365       0.070756686395      -0.092079253537
71 1       0.153440000000       7.565430000000       6.910750000000       0.034018189173      -0.016015140265       0.024252097864
72 1       8.757190000000       7.811490000000       2.201690000000      -0.028417694306       0.013237504291       0.024264838160
73 1       4.439960000000       6.910070000000       4.754090000000      -0.001007968276      -0.070702569571       0.154898117385
74 1       5.850890000000       5.916400000000       9.401810000000      -0.058288674438       0.030502638015       0.111195513718
75 1       4.356690000000       5.002540000000       6.910740000000      -0.034053214983      -0.015882190074       0.024385377716
76 1       4.555080000000       5.248610000000       2.201690000000       0.028357506004       0.013264783662       0.024252214617
77 1       3.060880000000       9.460600000000       4.692640000000       0.058858505536      -0.031615412829       0.111941346938
78 1       4.470770000000       8.467920000000       0.044850000000      -0.004443948329       0.069538247616       0.151023863642
79 1       2.905720000000       7.831640000000       6.846320000000       0.000271784958      -0.176339342790       0.019132360621
80 1       2.980980000000       7.595200000000       2.251440000000       0.100873276707      -0.035274271977      -0.086477365758
