ITEM: TIMESTEP
0
ITEM: NUMBER OF ATOMS
30
ITEM: BOX BOUNDS xy xz yz pp pp pp
-2.5774312410000002e+00 5.1548624829999996e+00 -2.5774312410000002e+00
0.0000000000000000e+00 4.4642422890000004e+00 0.0000000000000000e+00
0.0000000000000000e+00 1.3877258835999999e+01 0.0000000000000000e+00
ITEM: ATOMS id type v_vir_xx v_vir_yy v_vir_zz v_vir_xy v_vir_xz v_vir_yz
1 2      -2.371274786228      -2.371310983515      -0.623843489134      -0.000013452809      -0.000012339081       0.000007581097
2 2      -2.371361679136      -2.371338643316      -0.624077280769       0.000007849119       0.000000611368       0.000003812590
3 2      -2.371301959186      -2.371323034996      -0.623879880078      -0.000013979175      -0.000009810815       0.000011057995
4 2      -2.371195779404      -2.371242986554      -0.623772249059       0.000026002336       0.000008874229       0.000006173148
5 2      -2.371313265029      -2.371337357638      -0.624055453330      -0.000004242565      -0.000003538061      -0.000004366912
6 2      -2.371191046435      -2.371252011646      -0.623726334396       0.000008751652       0.000012640558       0.000005702378
7 2      -2.371299380712      -2.371319806024      -0.624062989684      -0.000001828504      -0.000004883048       0.000000587453
8 2      -2.371265986523      -2.371325240929      -0.623825771102      -0.000010308055       0.000002542902       0.000013004448
9 2      -2.371291969337      -2.371283202158      -0.623790610177      -0.000015110588      -0.000009048714      -0.000001149239
10 2      -2.371314187829      -2.371320175393      -0.623880703372      -0.000019348734       0.000007486546       0.000010105448
11 2      -2.371293087801      -2.371286280634      -0.623741413815      -0.000015512312      -0.000012937506       0.000000842051
12 2      -2.371390610845      -2.371370754552      -0.624085278025      -0.000011149259       0.000003147645      -0.000001754175
13 1       2.291854483424       3.078578038932       1.486024932075      -0.681276744699       0.782232423685       0.451638914338
14 1       3.471818737945       1.898560996788       1.486027906911      -0.000030237800       0.000007740390      -0.903250960521
15 1       2.291891730245       3.078548198618       1.486027034209       0.681294807670      -0.782237368005       0.451626045057
16 1       2.291915885718       3.078515272991       1.486010867996      -0.681285624170       0.782250130699       0.451624183074
17 1       2.291868664706       3.078574726505       1.486035910853       0.681258796829      -0.782233248281       0.451648658535
18 1       3.471859871990       1.898543851884       1.486028043483       0.000029364896      -0.000014987428      -0.903262788705
19 1       2.291813742600       3.078562459522       1.486016655445      -0.681231375544       0.782233062240       0.451648833849
20 1       3.471827267112       1.898546719730       1.486007065576      -0.000036892063       0.000012234459      -0.903251941956
21 1       2.291893721872       3.078531388807       1.486029110457       0.681312863688      -0.782256521846       0.451615268475
22 1       2.291783549192       3.078550494249       1.486008640380      -0.681268738130       0.782221833534       0.451641840898
23 1       2.291859980717       3.078459133133       1.485977404323       0.681285304112      -0.782240038971       0.451606759216
24 1       3.471817345300       1.898518722313       1.486017652391      -0.000055388596       0.000015485969      -0.903243589069
25 1       2.291917102292       3.078470714992       1.486006736476      -0.681277217258       0.782236771959       0.451606107902
26 1       3.471903681156       1.898527417931       1.486035776892       0.000059411065      -0.000018958251      -0.903258622171
27 1       2.291847180391       3.078560418922       1.486019494807       0.681261366242      -0.782225526492       0.451645394979
28 1       2.291930152954       3.078570505332       1.486057490943      -0.681272771379       0.782238783089       0.451629923798
29 1       2.291889381148       3.078585893546       1.486027818483       0.681276890223      -0.782231509994       0.451638639988
30 1       3.471895394046       1.898580415485       1.486040551068       0.000023067228      -0.000006645208      -0.903265983356
