ITEM: TIMESTEP
0
ITEM: NUMBER OF ATOMS
40
ITEM: BOX BOUNDS pp pp pp
0.0000000000000000e+00 8.9605695559999994e+00
0.0000000000000000e+00 5.2180209399999997e+00
0.0000000000000000e+00 9.5880727189999995e+00
ITEM: ATOMS id type c_pe_atom
1 2      -5.035282842026
2 2      -5.035279386365
3 2      -4.730089646202
4 2      -4.730094858570
5 2      -5.128290542042
6 2      -5.014515206170
7 2      -5.014509732660
8 2      -5.128298730795
9 2      -4.730029475305
10 2      -4.730024022058
11 2      -5.033958757896
12 2      -5.033959752998
13 2      -5.129443998320
14 2      -5.014667490521
15 2      -5.014672169017
16 2      -5.129448543400
17 1     -10.968164065934
18 1     -10.989330348942
19 1     -10.920576160303
20 1     -10.412881175401
21 1     -10.968166699011
22 1     -10.899547752060
23 1     -10.920576699472
24 1     -10.412877018752
25 1     -10.899518929619
26 1     -10.967685915340
27 1     -10.412018481636
28 1     -10.920697169059
29 1     -10.990205379061
30 1     -10.967686528305
31 1     -10.882628243294
32 1     -10.882339185380
33 1     -10.990216221756
34 1     -10.899538636637
35 1     -10.882628984597
36 1     -10.882341307763
37 1     -10.899516662597
38 1     -10.989335314861
39 1     -10.412014624310
40 1     -10.920714776361
