ITEM: TIMESTEP
0
ITEM: NUMBER OF ATOMS
20
ITEM: BOX BOUNDS xy xz yz pp pp pp
-1.4013845637169999e+00 1.2560130690333001e+01 0.0000000000000000e+00
0.0000000000000000e+00 3.1104067010000001e+00 -1.4013845637169999e+00
0.0000000000000000e+00 5.7583480333599999e+00 0.0000000000000000e+00
ITEM: ATOMS id type c_pe_atom
1 2      -5.126424674516
2 2      -5.126423647336
3 2      -4.644483990610
4 2      -4.644476051366
5 2      -5.126420107957
6 2      -5.126424642908
7 2      -4.644472471475
8 2      -4.644483545278
9 1     -11.047815076211
10 1     -11.047819120864
11 1     -10.869359940068
12 1     -10.869349598729
13 1     -10.953974753677
14 1     -10.953976858906
15 1     -11.047819121213
16 1     -11.047815612713
17 1     -10.869351934895
18 1     -10.869362837394
19 1     -10.953975467677
20 1     -10.953977361857
