ITEM: TIMESTEP
0
ITEM: NUMBER OF ATOMS
30
ITEM: BOX BOUNDS xy xz yz pp pp pp
-2.5824949469999998e+00 5.1649899140000004e+00 -2.5824949469999998e+00
0.0000000000000000e+00 4.4730129019999998e+00 0.0000000000000000e+00
0.0000000000000000e+00 1.3904522606000000e+01 0.0000000000000000e+00
ITEM: ATOMS id type x y z fx fy fz
1 2       0.000000000000       0.000000000000       2.004190000000      -0.000000075082      -0.000086315312      -0.200521139883
2 2       0.000000006667       2.982010000000       0.313240000000       0.000003554789      -0.000074470277       0.200374444640
3 2       2.582490003333       1.491000000000       2.630650000000       0.000100403066       0.000059831075       0.200450229670
4 2       0.000000006667       2.982010000000       4.321610000000      -0.000041445921      -0.000028208349      -0.200391182540
5 2       2.582490003333       1.491000000000       6.639020000000       0.000069474203       0.000084862430      -0.200307000184
6 2       0.000000000000       0.000000000000       4.948070000000      -0.000047376319       0.000024478733       0.200571507827
7 2       0.000000006667       2.982010000000       7.265500000000      -0.000030996544      -0.000110453885       0.200422137677
8 2       0.000000000000       0.000000000000       8.956450000000       0.000018193577      -0.000069543582      -0.200549469720
9 2       0.000000006667       2.982010000000      11.273870000000       0.000020139754      -0.000026828272      -0.200390316101
10 2       2.582490003333       1.491000000000       9.582910000000       0.000104656271       0.000062321311       0.200428995556
11 2       0.000000000000       0.000000000000      11.900330000000      -0.000003574351       0.000005947279       0.200587959583
12 2       2.582490003333       1.491000000000      13.591290000000       0.000108623680       0.000109556209      -0.200454433887
13 1      -0.782509996970       1.355350000000       3.476130000000      -0.077122299114       0.133473559390       0.000021809735
14 1       1.565020000000       0.000000000000       3.476130000000       0.154143296432      -0.000046302439       0.000050145177
15 1       1.799980006970       3.117660000000       3.476130000000      -0.077030289502      -0.133452643436       0.000012528301
16 1       3.365010000303       0.135650000000       1.158710000000       0.077024881009      -0.133403962801       0.000067262718
17 1       3.365010006363       2.846350000000       1.158710000000       0.076948695453       0.133513886736       0.000089444056
18 1       1.017470003333       1.491000000000       1.158710000000      -0.154064416283       0.000020832919       0.000031703376
19 1       1.799980006363       2.846350000000       8.110970000000      -0.076950765914       0.133504981104       0.000089366563
20 1       4.147520003333       1.491000000000       8.110970000000       0.154075135085       0.000031852164       0.000013069856
21 1       1.799990000303       0.135650000000       8.110970000000      -0.077207509128      -0.133386139233       0.000101300196
22 1       0.782510003637       1.626660000000       5.793560000000       0.076952143423      -0.133512859552      -0.000158191034
23 1       0.782510009697       4.337360000000       5.793560000000       0.077125425113       0.133379169549      -0.000180760155
24 1      -1.565029993333       2.982010000000       5.793560000000      -0.154038718013       0.000035757890      -0.000123584175
25 1      -0.782509990303       4.337360000000      12.745820000000      -0.077161983938       0.133399818124      -0.000138897686
26 1       1.565020006667       2.982010000000      12.745820000000       0.154164756020       0.000027966525      -0.000097228729
27 1      -0.782509996363       1.626660000000      12.745820000000      -0.077065421312      -0.133514952669      -0.000089553132
28 1      -1.799979993030       3.117660000000      10.428390000000       0.077002758151      -0.133460895897       0.000008821169
29 1       0.782510003030       1.355350000000      10.428390000000       0.077070611063       0.133464842357       0.000037861867
30 1       3.599970000000       0.000000000000      10.428390000000      -0.154167875671      -0.000026088092       0.000043169258
