ITEM: TIMESTEP
0
ITEM: NUMBER OF ATOMS
30
ITEM: BOX BOUNDS xy xz yz pp pp pp
-2.4964117820000000e+00 4.9928235839999999e+00 -2.4964117820000000e+00
0.0000000000000000e+00 4.3239124720000000e+00 0.0000000000000000e+00
0.0000000000000000e+00 1.3441038518999999e+01 0.0000000000000000e+00
ITEM: ATOMS id type x y z fx fy fz
1 2       0.000000000000       0.000000000000       1.937380000000      -0.000013180216      -0.000019621664      -0.015095779094
2 2       0.000000006667       2.882610000000       0.302800000000      -0.000004019699      -0.000076196211       0.015061169162
3 2       2.496410003333       1.441300000000       2.542960000000       0.000010424165       0.000105109692       0.015114774458
4 2       0.000000006667       2.882610000000       4.177560000000      -0.000028965777      -0.000066474580      -0.015113174995
5 2       2.496410003333       1.441300000000       6.417720000000       0.000047910099       0.000083524012      -0.015035045254
6 2       0.000000000000       0.000000000000       4.783140000000      -0.000007512059       0.000024230607       0.015107380710
7 2       0.000000006667       2.882610000000       7.023320000000      -0.000013561953      -0.000081810932       0.015025230481
8 2       0.000000000000       0.000000000000       8.657900000000       0.000031052827      -0.000030624674      -0.015118087558
9 2       0.000000006667       2.882610000000      10.898080000000       0.000024444681      -0.000050228442      -0.015134933917
10 2       2.496410003333       1.441300000000       9.263480000000       0.000061078237       0.000091053806       0.015111025147
11 2       0.000000000000       0.000000000000      11.503660000000      -0.000033248375       0.000005849213       0.015123190787
12 2       2.496410003333       1.441300000000      13.138240000000       0.000010534329       0.000102394944      -0.015049890874
13 1       4.236390003030       1.310170000000       3.360260000000       0.011956528731      -0.020499235290       0.000039436846
14 1       1.512860000000       0.000000000000       3.360260000000      -0.023811421773      -0.000014093647       0.000023643140
15 1       1.739980006970       3.013740000000       3.360260000000       0.011921799299       0.020522738503      -0.000039157478
16 1       3.252840000303       0.131130000000       1.120080000000      -0.011804208424       0.020655249397       0.000126636475
17 1       3.252840006363       2.751480000000       1.120080000000      -0.011945660218      -0.020613451133       0.000118350807
18 1       0.983560003333       1.441300000000       1.120080000000       0.023693862927       0.000002414827       0.000100701517
19 1       1.739980006363       2.751480000000       7.840600000000       0.012019617392      -0.020625329589       0.000150547654
20 1       4.009270003333       1.441300000000       7.840600000000      -0.023783653240       0.000024658653       0.000085905597
21 1       1.739990000303       0.131130000000       7.840600000000       0.011718433866       0.020659431534       0.000169066004
22 1       0.756430003637       1.572440000000       5.600440000000      -0.011995950565       0.020478739981      -0.000160941480
23 1       0.756430009697       4.192780000000       5.600440000000      -0.011862206307      -0.020607760991      -0.000124066768
24 1      -1.512859993333       2.882610000000       5.600440000000       0.023816395605       0.000027144081      -0.000098553268
25 1      -0.756429990303       4.192780000000      12.320960000000       0.011829262697      -0.020603747678      -0.000139814302
26 1       1.512850006667       2.882610000000      12.320960000000      -0.023685738984       0.000028086973      -0.000117373113
27 1      -0.756429996363       1.572440000000      12.320960000000       0.011951664964       0.020482986147      -0.000139356229
28 1      -1.739979993030       3.013740000000      10.080780000000      -0.011926031780       0.020514510316      -0.000036977778
29 1       0.756430003030       1.310170000000      10.080780000000      -0.011882293253      -0.020513858278       0.000025044807
30 1       3.479970000000       0.000000000000      10.080780000000       0.023704642803      -0.000005689576       0.000021048518
