ITEM: TIMESTEP
0
ITEM: NUMBER OF ATOMS
30
ITEM: BOX BOUNDS xy xz yz pp pp pp
-2.4964117820000000e+00 4.9928235839999999e+00 -2.4964117820000000e+00
0.0000000000000000e+00 4.3239124720000000e+00 0.0000000000000000e+00
0.0000000000000000e+00 1.3441038518999999e+01 0.0000000000000000e+00
ITEM: ATOMS id type c_pe_atom
1 2      -2.670277421226
2 2      -2.670034947827
3 2      -2.670316278556
4 2      -2.670329433334
5 2      -2.670094007987
6 2      -2.670281922341
7 2      -2.670077221540
8 2      -2.670251176066
9 2      -2.670294018136
10 2      -2.670351232973
11 2      -2.670257209281
12 2      -2.670073851414
13 1      -8.100020254589
14 1      -8.099931954818
15 1      -8.100062004986
16 1      -8.100093071869
17 1      -8.100077165095
18 1      -8.100131721516
19 1      -8.100063860541
20 1      -8.100097513952
21 1      -8.100074207716
22 1      -8.100088567721
23 1      -8.100112138839
24 1      -8.100079015070
25 1      -8.100073223704
26 1      -8.100140021689
27 1      -8.100120529068
28 1      -8.100019706533
29 1      -8.100008592241
30 1      -8.100003359925
