ITEM: TIMESTEP
0
ITEM: NUMBER OF ATOMS
30
ITEM: BOX BOUNDS xy xz yz pp pp pp
-2.4964117820000000e+00 4.9928235839999999e+00 -2.4964117820000000e+00
0.0000000000000000e+00 4.3239124720000000e+00 0.0000000000000000e+00
0.0000000000000000e+00 1.3441038518999999e+01 0.0000000000000000e+00
ITEM: ATOMS id type v_vir_xx v_vir_yy v_vir_zz v_vir_xy v_vir_xz v_vir_yz
1 2      -5.092163115201      -5.092098466875      -4.454397069052      -0.000000836981       0.000000434116       0.000003044018
2 2      -5.092254585448      -5.092246541937      -4.454657302180      -0.000009576887      -0.000001664082      -0.000024003486
3 2      -5.092124739456      -5.092059212432      -4.454413834680      -0.000010966375       0.000009602232       0.000031472726
4 2      -5.092041821178      -5.092090419711      -4.454394427668       0.000041981653       0.000014613262       0.000034932279
5 2      -5.092171855221      -5.092183268239      -4.454612250080      -0.000017340198      -0.000004277034      -0.000020013996
6 2      -5.092117555854      -5.092088739978      -4.454372184095       0.000015568004       0.000007159069       0.000021268728
7 2      -5.092171572667      -5.092230703544      -4.454618297637       0.000020773024      -0.000009355438      -0.000024065699
8 2      -5.092143761128      -5.092111870654      -4.454366918423      -0.000029065279      -0.000018621756       0.000013166207
9 2      -5.092146569321      -5.092132355851      -4.454417840960      -0.000012542871      -0.000022679708       0.000012380101
10 2      -5.092096569642      -5.092043405287      -4.454398071517      -0.000029948465      -0.000014084009       0.000022177947
11 2      -5.092226842112      -5.092110381297      -4.454396169232      -0.000025951378      -0.000019477855      -0.000002744285
12 2      -5.092261765063      -5.092211644579      -4.454664550502      -0.000006513823      -0.000008828946      -0.000035169083
13 1       1.956850330273       2.780262100040       2.077876889798      -0.713048406117       0.368077658336       0.212526090861
14 1       3.191888820156       1.545161641750       2.077870858235      -0.000014735062       0.000002210264      -0.425016111061
15 1       1.956873400575       2.780256683426       2.077862820184       0.713058368524      -0.368082807379       0.212524856700
16 1       1.956904339203       2.780176443419       2.077860611044      -0.713097029235       0.368074093052       0.212488968820
17 1       1.956845709236       2.780244388310       2.077849931920       0.713054974857      -0.368051553712       0.212517010100
18 1       3.191966305718       1.545163873742       2.077871063444       0.000003077231      -0.000013539235      -0.425030605369
19 1       1.956802076612       2.780244984631       2.077845239735      -0.713034854354       0.368061820692       0.212516960918
20 1       3.191936768641       1.545141043981       2.077846561034      -0.000008728362       0.000007521778      -0.425015104519
21 1       1.956885095145       2.780166860187       2.077865079509       0.713123184384      -0.368080375161       0.212476432252
22 1       1.956815601079       2.780287294748       2.077861697158      -0.713049714213       0.368071187310       0.212521527903
23 1       1.956865366478       2.780199293118       2.077838742024       0.713095671182      -0.368079597015       0.212489150675
24 1       3.191880623964       1.545165143208       2.077843813797      -0.000021542710       0.000005894719      -0.425018781855
25 1       1.956906614729       2.780206799937       2.077859827326      -0.713086472110       0.368073213490       0.212491647061
26 1       3.191972759347       1.545198918560       2.077870821758       0.000024717241      -0.000007597384      -0.425035047097
27 1       1.956875173917       2.780302174603       2.077872709171       0.713049948358      -0.368064667209       0.212533155578
28 1       1.956867200285       2.780267152886       2.077869789748      -0.713030230962       0.368078129493       0.212534622788
29 1       1.956902487485       2.780273331255       2.077891962171       0.713060382837      -0.368077926376       0.212530297070
30 1       3.191960115018       1.545196264249       2.077879887665       0.000005713595       0.000010949591      -0.425035609007
