ITEM: TIMESTEP
0
ITEM: NUMBER OF ATOMS
80
ITEM: BOX BOUNDS pp pp pp
0.0000000000000000e+00 9.4674102219999998e+00
0.0000000000000000e+00 9.4674102219999998e+00
0.0000000000000000e+00 9.4674102219999998e+00
ITEM: ATOMS id type x y z fx fy fz
1 2       7.100560000000       2.366850000000       2.366850000000      -0.000017859824       0.000078713631       0.000086269246
2 2       7.100560000000       4.392830000000       4.733710000000      -0.000063385415      -0.038318124554      -0.000072524897
3 2       0.000000000000       7.100560000000       0.340880000000      -0.000021162639      -0.000045540487       0.038255169677
4 2       0.000000000000       2.366850000000       4.392830000000      -0.000023417094       0.000070788247      -0.038313577752
5 2       0.340880000000       0.000000000000       7.100560000000       0.038255169677      -0.000021162639      -0.000045540487
6 2       0.340880000000       4.733710000000       2.366850000000       0.038267610429      -0.000074772272       0.000088647514
7 2       2.366850000000       4.392830000000       0.000000000000       0.000070788247      -0.038313577752      -0.000023417094
8 2       2.366850000000       7.100560000000       2.366850000000       0.000086269246      -0.000017859824       0.000078713631
9 2       2.366850000000       2.366850000000       2.366850000000       0.000034769059       0.000034769059       0.000034769059
10 2       2.366850000000       2.366850000000       7.100560000000       0.000078713631       0.000086269246      -0.000017859824
11 2       2.366850000000       0.340880000000       4.733710000000       0.000088647514       0.038267610429      -0.000074772272
12 2       4.392830000000       0.000000000000       2.366850000000      -0.038313577752      -0.000023417094       0.000070788247
13 2       4.392830000000       4.733710000000       7.100560000000      -0.038318124554      -0.000072524897      -0.000063385415
14 2       4.733710000000       2.366850000000       0.340880000000      -0.000074772272       0.000088647514       0.038267610429
15 2       4.733710000000       7.100560000000       4.392830000000      -0.000072524897      -0.000063385415      -0.038318124554
16 2       7.100560000000       0.340880000000       0.000000000000      -0.000045540487       0.038255169677      -0.000021162639
17 2       2.366850000000       7.100560000000       7.100560000000       0.000035014206      -0.000046181886      -0.000045936800
18 2       2.366850000000       9.126530000000       0.000000000000       0.000070047963      -0.038263594285       0.000024041407
19 2       4.733710000000       2.366850000000       5.074580000000      -0.000027331838       0.000052183810       0.038284119243
20 2       4.733710000000       7.100560000000       9.126530000000      -0.000029577740      -0.000026931362      -0.038268135333
21 2       5.074580000000       4.733710000000       2.366850000000       0.038284119243      -0.000027331838       0.000052183810
22 2       5.074580000000       0.000000000000       7.100560000000       0.038271675506       0.000021786548      -0.000044791603
23 2       7.100560000000       9.126530000000       4.733710000000      -0.000026931362      -0.038268135333      -0.000029577740
24 2       7.100560000000       2.366850000000       7.100560000000      -0.000045936800       0.000035014206      -0.000046181886
25 2       7.100560000000       7.100560000000       7.100560000000      -0.000025415464      -0.000025415464      -0.000025415464
26 2       7.100560000000       7.100560000000       2.366850000000      -0.000046181886      -0.000045936800       0.000035014206
27 2       7.100560000000       5.074580000000       0.000000000000      -0.000044791603       0.038271675506       0.000021786548
28 2       9.126530000000       4.733710000000       7.100560000000      -0.038268135333      -0.000029577740      -0.000026931362
29 2       9.126530000000       0.000000000000       2.366850000000      -0.038263594285       0.000024041407       0.000070047963
30 2       0.000000000000       7.100560000000       5.074580000000       0.000021786548      -0.000044791603       0.038271675506
31 2       0.000000000000       2.366850000000       9.126530000000       0.000024041407       0.000070047963      -0.038263594285
32 2       2.366850000000       5.074580000000       4.733710000000       0.000052183810       0.038284119243      -0.000027331838
33 1       8.387180000000       5.792520000000       1.498180000000      -0.037356835245       0.027653894908       0.025154626016
34 1       8.387180000000       3.674890000000       3.235530000000      -0.037314710051      -0.027645709009      -0.025204316269
35 1       8.408590000000       1.498180000000       1.080230000000      -0.027559723371       0.025189036150       0.037325298160
36 1       8.408590000000       3.235530000000       5.813940000000      -0.027568393910      -0.025235634505       0.037270354805
37 1       1.058820000000       3.235530000000       1.080230000000       0.027565725785      -0.025230803188       0.037307088730
38 1       1.058820000000       1.498180000000       5.813940000000       0.027545109642       0.025184151508       0.037296777496
39 1       1.080230000000       8.408590000000       1.498180000000       0.037325298160      -0.027559723371       0.025189036150
40 1       1.080230000000       1.058820000000       3.235530000000       0.037307088730       0.027565725785      -0.025230803188
41 1       1.498180000000       5.813940000000       1.058820000000       0.025184151508       0.037296777496       0.027545109642
42 1       1.498180000000       3.653470000000       3.674890000000       0.025150757929      -0.037287515812      -0.027632755516
43 1       1.498180000000       1.080230000000       8.408590000000       0.025189036150       0.037325298160      -0.027559723371
44 1       1.498180000000       8.387180000000       5.792520000000       0.025154626016      -0.037356835245       0.027653894908
45 1       3.235530000000       3.653470000000       5.792520000000      -0.025194324995      -0.037284994340       0.027670226565
46 1       3.235530000000       1.080230000000       1.058820000000      -0.025230803188       0.037307088730       0.027565725785
47 1       3.235530000000       8.387180000000       3.674890000000      -0.025204316269      -0.037314710051      -0.027645709009
48 1       3.235530000000       5.813940000000       8.408590000000      -0.025235634505       0.037270354805      -0.027568393910
49 1       3.653470000000       3.674890000000       1.498180000000      -0.037287515812      -0.027632755516       0.025150757929
50 1       3.653470000000       5.792520000000       3.235530000000      -0.037284994340       0.027670226565      -0.025194324995
51 1       3.674890000000       1.498180000000       3.653470000000      -0.027632755516       0.025150757929      -0.037287515812
52 1       3.674890000000       3.235530000000       8.387180000000      -0.027645709009      -0.025204316269      -0.037314710051
53 1       5.792520000000       1.498180000000       8.387180000000       0.027653894908       0.025154626016      -0.037356835245
54 1       5.792520000000       3.235530000000       3.653470000000       0.027670226565      -0.025194324995      -0.037284994340
55 1       5.813940000000       8.408590000000       3.235530000000       0.037270354805      -0.027568393910      -0.025235634505
56 1       5.813940000000       1.058820000000       1.498180000000       0.037296777496       0.027545109642       0.025184151508
57 1       3.653470000000       1.058820000000       6.231880000000      -0.037264229795       0.027561182746       0.025226744498
58 1       3.653470000000       8.408590000000       7.969230000000      -0.037281393992      -0.027557111995      -0.025188195777
59 1       3.674890000000       6.231880000000       5.813940000000      -0.027636547992       0.025203745842       0.037282732401
60 1       3.674890000000       7.969230000000       1.080230000000      -0.027629818144      -0.025160345121       0.037336629159
61 1       5.792520000000       7.969230000000       5.813940000000       0.027646669825      -0.025157266456       0.037323807716
62 1       5.792520000000       6.231880000000       1.080230000000       0.027665343660       0.025200709427       0.037335165081
63 1       5.813940000000       3.674890000000       6.231880000000       0.037282732401      -0.027636547992       0.025203745842
64 1       5.813940000000       5.792520000000       7.969230000000       0.037323807716       0.027646669825      -0.025157266456
65 1       6.231880000000       1.080230000000       5.792520000000       0.025200709427       0.037335165081       0.027665343660
66 1       6.231880000000       8.387180000000       8.408590000000       0.025238545555      -0.037309643888      -0.027568124250
67 1       6.231880000000       5.813940000000       3.674890000000       0.025203745842       0.037282732401      -0.027636547992
68 1       6.231880000000       3.653470000000       1.058820000000       0.025226744498      -0.037264229795       0.027561182746
69 1       7.969230000000       8.387180000000       1.058820000000      -0.025190272419      -0.037335013791       0.027546780987
70 1       7.969230000000       5.813940000000       5.792520000000      -0.025157266456       0.037323807716       0.027646669825
71 1       7.969230000000       3.653470000000       8.408590000000      -0.025188195777      -0.037281393992      -0.027557111995
72 1       7.969230000000       1.080230000000       3.674890000000      -0.025160345121       0.037336629159      -0.027629818144
73 1       8.387180000000       8.408590000000       6.231880000000      -0.037309643888      -0.027568124251       0.025238545555
74 1       8.387180000000       1.058820000000       7.969230000000      -0.037335013791       0.027546780987      -0.025190272419
75 1       8.408590000000       6.231880000000       8.387180000000      -0.027568124251       0.025238545555      -0.037309643888
76 1       8.408590000000       7.969230000000       3.653470000000      -0.027557111995      -0.025188195777      -0.037281393992
77 1       1.058820000000       6.231880000000       3.653470000000       0.027561182746       0.025226744498      -0.037264229795
78 1       1.058820000000       7.969230000000       8.387180000000       0.027546780987      -0.025190272419      -0.037335013791
79 1       1.080230000000       3.674890000000       7.969230000000       0.037336629159      -0.027629818144      -0.025160345121
80 1       1.080230000000       5.792520000000       6.231880000000       0.037335165081       0.027665343660       0.025200709427
