ITEM: TIMESTEP
0
ITEM: NUMBER OF ATOMS
20
ITEM: BOX BOUNDS xy xz yz pp pp pp
-1.3707987893300000e+00 1.2286000853698001e+01 0.0000000000000000e+00
0.0000000000000000e+00 3.0425208399999999e+00 -1.3707987893300000e+00
0.0000000000000000e+00 5.6326698027979996e+00 0.0000000000000000e+00
ITEM: ATOMS id type x y z fx fy fz
1 2       1.524110506067       1.521260000000       1.764847792133       0.024998363765       0.000004455974       0.046205748350
2 2       3.248093329923       0.000000000000       3.867827512042      -0.024997286647      -0.000004455800      -0.046278490004
3 2       0.023919224432       0.000000000000       4.479030141683      -0.072304864446      -0.000006348046      -0.048608323585
4 2       4.748274895155       1.521260000000       1.153642797853       0.072432308957       0.000006348312       0.048477149550
5 2       7.667105007805       0.000000000000       1.764844383901       0.025027525096      -0.000004456474       0.046244654268
6 2       9.391097548064       1.521260000000       3.867826468450      -0.025131648773       0.000004456493      -0.046260344259
7 2       6.166923442573       1.521260000000       4.479029098091      -0.072454584778       0.000006348059      -0.048582869294
8 2      10.891279113296       0.000000000000       1.153641754261       0.072411692222      -0.000006348138       0.048606802333
9 1       5.753484456069       0.000000000000       1.435368271760      -0.048762095827      -0.000008126775      -0.037735784529
10 1      -0.981290336481       1.521260000000       4.197304667775       0.048828085280       0.000008127077       0.037702822060
11 1       1.350579919006       0.000000000000       3.160998530540       0.011618245501      -0.000002816181      -0.040445953203
12 1       3.421626281623       1.521260000000       2.471667057232      -0.011764915406       0.000002816429       0.040592920691
13 1       2.856922372885       1.521260000000       5.022876571160      -0.014972083883       0.000003950785       0.011249464154
14 1       1.915283827744       0.000000000000       0.609789016612       0.014969766612      -0.000003951367      -0.011173417132
15 1      11.896488674210       1.521260000000       1.435367228168      -0.048750550726       0.000008126865      -0.037703328546
16 1       5.161713881660       0.000000000000       4.197303624183       0.048753261324      -0.000008126901       0.037718290809
17 1       7.493572056105       1.521260000000       3.161004838711       0.011835159840       0.000002816407      -0.040624542720
18 1       9.564620783361       0.000000000000       2.471663649001      -0.011715156004      -0.000002816539       0.040626064416
19 1       8.999924226387       0.000000000000       5.022885243971      -0.014985544811      -0.000003951490       0.011043764020
20 1       8.058278329483       1.521260000000       0.609785608381       0.014964322703       0.000003951312      -0.011054627378
