20
Config_type=bulk_beta_phase Weight=1.0 Lattice="11.937573126 0.000000000 -2.905196179 0.000000000 3.042520840 0.000000000 0.000000000 0.000000000 5.797073264" Energy=-170.44502140 Virial="8.86630 0.00000 0.30858 0.00000 9.91126 0.00000 0.30858 0.00000 9.90250" pbc="T T T" Properties=species:S:1:pos:R:3:forces:R:3
Ga	      1.89821      1.52126      1.35440         0.035026      0.000005     -0.003422
Ga	      4.07058      0.00000      2.99008        -0.035021     -0.000004      0.003339
Ga	      1.08237      0.00000      4.34635         0.013696     -0.000008     -0.022465
Ga	      4.88641      1.52126     -0.00187        -0.013564      0.000006      0.022303
Ga	      7.86699      0.00000     -0.09820         0.035054     -0.000005     -0.003391
Ga	     10.03937      1.52126      1.53748        -0.035222      0.000006      0.003396
Ga	      7.05116      1.52126      2.89375         0.013520      0.000008     -0.022404
Ga	     10.85520      0.00000     -1.45447        -0.013576     -0.000007      0.022444
O	      5.92973      0.00000      0.03417         0.008228     -0.000007     -0.013629
O	      0.03905      1.52126      4.31031        -0.008089      0.000008      0.013584
O	      2.05974      0.00000      2.75199         0.008735     -0.000003      0.000047
O	      3.90905      1.52126      1.59248        -0.008895      0.000001      0.000182
O	      3.96363      1.52126      4.20487         0.004094      0.000005      0.001362
O	      2.00516      0.00000      0.13960        -0.004143     -0.000005     -0.001337
O	     11.89852      1.52126     -1.41843         0.008185      0.000009     -0.013597
O	      6.00784      0.00000      2.85771        -0.008172     -0.000010      0.013619
O	      8.02852      1.52126      1.29940         0.008938      0.000002     -0.000181
O	      9.87783      0.00000      0.13988        -0.008788     -0.000003      0.000160
O	      9.93242      0.00000      2.75228         0.004066     -0.000005      0.001191
O	      7.97394      1.52126     -1.31300        -0.004073      0.000005     -0.001200
