ITEM: TIMESTEP
0
ITEM: NUMBER OF ATOMS
80
ITEM: BOX BOUNDS pp pp pp
0.0000000000000000e+00 9.5991634460000004e+00
0.0000000000000000e+00 9.5991634460000004e+00
0.0000000000000000e+00 9.5991634460000004e+00
ITEM: ATOMS id type c_pe_atom
1 2      -5.500543695899
2 2      -5.329397359161
3 2      -5.329399866131
4 2      -5.329397636862
5 2      -5.329399866131
6 2      -5.329398843186
7 2      -5.329397636862
8 2      -5.500543695899
9 2      -5.500543238404
10 2      -5.500543695899
11 2      -5.329398843186
12 2      -5.329397636862
13 2      -5.329397359161
14 2      -5.329398843186
15 2      -5.329397359161
16 2      -5.329399866131
17 2      -5.500544153373
18 2      -5.329398721918
19 2      -5.329397916512
20 2      -5.329398444255
21 2      -5.329397916512
22 2      -5.329398939498
23 2      -5.329398444255
24 2      -5.500544153373
25 2      -5.500544610782
26 2      -5.500544153373
27 2      -5.329398939498
28 2      -5.329398444255
29 2      -5.329398721918
30 2      -5.329398939498
31 2      -5.329398721918
32 2      -5.329397916512
33 1     -10.545633856667
34 1     -10.545627700017
35 1     -10.545628352603
36 1     -10.545626517441
37 1     -10.545628503144
38 1     -10.545635295518
39 1     -10.545628352603
40 1     -10.545628503144
41 1     -10.545635295518
42 1     -10.545636507529
43 1     -10.545628352603
44 1     -10.545633856667
45 1     -10.545634036689
46 1     -10.545628503144
47 1     -10.545627700017
48 1     -10.545626517441
49 1     -10.545636507529
50 1     -10.545634036689
51 1     -10.545636507530
52 1     -10.545627700017
53 1     -10.545633856667
54 1     -10.545634036689
55 1     -10.545626517441
56 1     -10.545635295518
57 1     -10.545636597420
58 1     -10.545628253480
59 1     -10.545631714613
60 1     -10.545625356333
61 1     -10.545629677807
62 1     -10.545631078926
63 1     -10.545631714613
64 1     -10.545629677807
65 1     -10.545631078926
66 1     -10.545627639307
67 1     -10.545631714613
68 1     -10.545636597420
69 1     -10.545628224001
70 1     -10.545629677807
71 1     -10.545628253480
72 1     -10.545625356333
73 1     -10.545627639307
74 1     -10.545628224001
75 1     -10.545627639307
76 1     -10.545628253480
77 1     -10.545636597420
78 1     -10.545628224001
79 1     -10.545625356333
80 1     -10.545631078926
