ITEM: TIMESTEP
0
ITEM: NUMBER OF ATOMS
30
ITEM: BOX BOUNDS xy xz yz pp pp pp
-2.5470489380000001e+00 5.0940978960000001e+00 -2.5470489380000001e+00
0.0000000000000000e+00 4.4116186080000004e+00 0.0000000000000000e+00
0.0000000000000000e+00 1.3713676217000000e+01 0.0000000000000000e+00
ITEM: ATOMS id type c_pe_atom
1 2      -4.776521541215
2 2      -4.776506451382
3 2      -4.776527894703
4 2      -4.776525580470
5 2      -4.776507502358
6 2      -4.776517940287
7 2      -4.776503516591
8 2      -4.776512596448
9 2      -4.776517981142
10 2      -4.776519993740
11 2      -4.776508067683
12 2      -4.776511247535
13 1     -10.984626073061
14 1     -10.984623690227
15 1     -10.984624378492
16 1     -10.984636911320
17 1     -10.984636851009
18 1     -10.984632439576
19 1     -10.984632280164
20 1     -10.984632567545
21 1     -10.984632353228
22 1     -10.984631818832
23 1     -10.984634026438
24 1     -10.984632341013
25 1     -10.984626103216
26 1     -10.984625278977
27 1     -10.984627666818
28 1     -10.984632442944
29 1     -10.984629865895
30 1     -10.984630837710
