ITEM: TIMESTEP
0
ITEM: NUMBER OF ATOMS
30
ITEM: BOX BOUNDS xy xz yz pp pp pp
-2.5470489380000001e+00 5.0940978960000001e+00 -2.5470489380000001e+00
0.0000000000000000e+00 4.4116186080000004e+00 0.0000000000000000e+00
0.0000000000000000e+00 1.3713676217000000e+01 0.0000000000000000e+00
ITEM: ATOMS id type x y z fx fy fz
1 2       0.000000000000       0.000000000000       1.976680000000       0.000007401759       0.000031288355      -0.129410364356
2 2       0.000000006667       2.941080000000       0.308940000000       0.000006043314      -0.000029584849       0.129237626423
3 2       2.547050003333       1.470540000000       2.594540000000      -0.000011569382      -0.000022150693       0.129437825644
4 2       0.000000006667       2.941080000000       4.262300000000       0.000007405680       0.000011075816      -0.129387521307
5 2       2.547050003333       1.470540000000       6.547900000000      -0.000052498192       0.000007748251      -0.129315710578
6 2       0.000000000000       0.000000000000       4.880160000000      -0.000030368186       0.000012616308       0.129416211083
7 2       0.000000006667       2.941080000000       7.165780000000       0.000013299285      -0.000029237910       0.129319332833
8 2       0.000000000000       0.000000000000       8.833520000000       0.000016438597       0.000031021771      -0.129395313262
9 2       0.000000006667       2.941080000000      11.119130000000      -0.000019646414      -0.000006357182      -0.129312653975
10 2       2.547050003333       1.470540000000       9.451380000000      -0.000043383457      -0.000002425059       0.129408212338
11 2       0.000000000000       0.000000000000      11.737000000000       0.000004136046      -0.000007938260       0.129381950050
12 2       2.547050003333       1.470540000000      13.404740000000      -0.000010720821       0.000026690059      -0.129447900825
13 1      -0.771769996970       1.336750000000       3.428420000000      -0.061578458127       0.106578037733      -0.000030760854
14 1       1.543540000000       0.000000000000       3.428420000000       0.123161023921       0.000013169968      -0.000011571172
15 1       1.775280006970       3.074870000000       3.428420000000      -0.061606358431      -0.106582101866       0.000008693538
16 1       3.318820000303       0.133790000000       1.142800000000       0.061617209939      -0.106510232008       0.000131718094
17 1       3.318820006363       2.807290000000       1.142800000000       0.061515093496       0.106569031917       0.000077103557
18 1       1.003510003333       1.470540000000       1.142800000000      -0.123131840262      -0.000058438751       0.000107230360
19 1       1.775280006363       2.807290000000       7.999640000000      -0.061533973965       0.106566147845       0.000080563746
20 1       4.090590003333       1.470540000000       7.999640000000       0.123118663613      -0.000061195456       0.000099883630
21 1       1.775280000303       0.133790000000       7.999640000000      -0.061640587359      -0.106503999476       0.000120961656
22 1       0.771770003637       1.604330000000       5.714040000000       0.061487659970      -0.106563131678      -0.000084999911
23 1       0.771770009697       4.277830000000       5.714040000000       0.061596864529       0.106489089903      -0.000140937140
24 1      -1.543549993333       2.941080000000       5.714040000000      -0.122965874619       0.000057186081      -0.000107508679
25 1      -0.771769990303       4.277830000000      12.570870000000      -0.061573728030       0.106525806505      -0.000015758129
26 1       1.543540006667       2.941080000000      12.570870000000       0.123117142293      -0.000003340021       0.000002756090
27 1      -0.771769996363       1.604330000000      12.570870000000      -0.061556026708      -0.106541076832       0.000023214183
28 1       3.318820006970       3.074870000000      10.285260000000       0.061512290638      -0.106577772004      -0.000039249361
29 1       0.771770003030       1.336750000000      10.285260000000       0.061588238984       0.106539919981      -0.000089315698
30 1       3.550550000000       0.000000000000      10.285260000000      -0.123013878111       0.000040151554      -0.000063717977
