30
Config_type=bulk_alpha_phase Weight=1.0 Lattice="5.094097896 0.000000000 0.000000000 -2.547048948 4.411618608 0.000000000 0.000000000 0.000000000 13.713676217" Energy=-255.10372560 Virial="-6.88301 -0.00004 0.00000 -0.00004 -6.88300 0.00011 0.00000 0.00011 -5.97967" pbc="T T T" Properties=species:S:1:pos:R:3:forces:R:3
Ga	      0.00000      0.00000      1.97668         0.000010      0.000022     -0.014657
Ga	      0.00000      2.94108      0.30894         0.000010     -0.000020      0.014486
Ga	      2.54705      1.47054      2.59454        -0.000017     -0.000016      0.014711
Ga	      0.00000      2.94108      4.26230         0.000003      0.000004     -0.014677
Ga	      2.54705      1.47054      6.54790        -0.000039      0.000009     -0.014545
Ga	      0.00000      0.00000      4.88016        -0.000014      0.000007      0.014665
Ga	      0.00000      2.94108      7.16578         0.000013     -0.000019      0.014593
Ga	      0.00000      0.00000      8.83352         0.000010      0.000019     -0.014643
Ga	      0.00000      2.94108     11.11913        -0.000012     -0.000001     -0.014597
Ga	      2.54705      1.47054      9.45138        -0.000035     -0.000006      0.014686
Ga	      0.00000      0.00000     11.73700         0.000001     -0.000002      0.014630
Ga	      2.54705      1.47054     13.40474        -0.000018      0.000014     -0.014712
O	     -0.77177      1.33675      3.42842        -0.003660      0.006278     -0.000019
O	      1.54354      0.00000      3.42842         0.007325      0.000008     -0.000001
O	      1.77528      3.07487      3.42842        -0.003691     -0.006273      0.000013
O	      3.31882      0.13379      1.14280         0.003658     -0.006187      0.000129
O	      3.31882      2.80729      1.14280         0.003604      0.006219      0.000081
O	      1.00351      1.47054      1.14280        -0.007260     -0.000034      0.000109
O	      1.77528      2.80729      7.99964        -0.003643      0.006260      0.000063
O	      4.09059      1.47054      7.99964         0.007295     -0.000029      0.000079
O	      1.77528      0.13379      7.99964        -0.003706     -0.006228      0.000095
O	      0.77177      1.60433      5.71404         0.003583     -0.006244     -0.000104
O	      0.77177      4.27783      5.71404         0.003662      0.006195     -0.000150
O	     -1.54355      2.94108      5.71404        -0.007153      0.000034     -0.000121
O	     -0.77177      4.27783     12.57087        -0.003637      0.006219     -0.000002
O	      1.54354      2.94108     12.57087         0.007272     -0.000012      0.000014
O	     -0.77177      1.60433     12.57087        -0.003650     -0.006217      0.000032
O	      3.31882      3.07487     10.28526         0.003635     -0.006227     -0.000025
O	      0.77177      1.33675     10.28526         0.003623      0.006219     -0.000075
O	      3.55055      0.00000     10.28526        -0.007168      0.000009     -0.000055
