ITEM: TIMESTEP
0
ITEM: NUMBER OF ATOMS
20
ITEM: BOX BOUNDS xy xz yz pp pp pp
-1.3791403644160001e+00 1.2360763535686001e+01 0.0000000000000000e+00
0.0000000000000000e+00 3.0610351659999999e+00 -1.3791403644160001e+00
0.0000000000000000e+00 5.6669456839860004e+00 0.0000000000000000e+00
ITEM: ATOMS id type x y z fx fy fz
1 2       1.529977156291       1.530520000000       1.779521176757       0.000474634499      -0.000024317736       0.063730434056
2 2       3.271264547252       0.000000000000       3.887432666593      -0.000459011446       0.000024320631      -0.063852338171
3 2       0.018363988053       0.000000000000       4.505620627787      -0.044457295287       0.000037354413      -0.056690641599
4 2       4.782880080129       1.530520000000       1.161323499160       0.044401339668      -0.000037355625       0.056747419846
5 2       7.710351973694       0.000000000000       1.779516839217       0.000554878019       0.000024321373       0.063891181231
6 2       9.451649081057       1.530520000000       3.887430693692      -0.000453530809      -0.000024321281      -0.063873836123
7 2       6.198736440816       1.530520000000       4.505626006650      -0.044337473055      -0.000037354431      -0.056738694347
8 2      10.963264613934       0.000000000000       1.161321526259       0.044415356901       0.000037354765       0.056750355549
9 1       5.784356623985       0.000000000000       1.451917765805      -0.027446199863       0.000045701385      -0.052084208383
10 1      -0.983112555803       1.530520000000       4.215026361142       0.027454283558      -0.000045700884       0.052066895057
11 1       1.363269470746       0.000000000000       3.189672333506      -0.026253979741       0.000014555174      -0.025825210157
12 1       3.437974597437       1.530520000000       2.477271793442       0.026233958050      -0.000014553090       0.025847677166
13 1       2.901143607234       1.530520000000       5.051391988374       0.047685432498      -0.000023300179       0.032593410602
14 1       1.900100460949       0.000000000000       0.615552138574      -0.047708434396       0.000023296962      -0.032555191641
15 1      11.964741157790       1.530520000000       1.451915792904      -0.027446227612      -0.000045701522      -0.052068579239
16 1       5.197262261600       0.000000000000       4.215022023602       0.027511654934       0.000045701261       0.052128899066
17 1       7.543651639912       1.530520000000       3.189680077008      -0.026298721388      -0.000014554364      -0.025847193438
18 1       9.618359131242       0.000000000000       2.477269820541       0.026195232488       0.000014553531       0.025863800005
19 1       9.081528141039       0.000000000000       5.051390015473       0.047687940901       0.000023300010       0.032607548942
20 1       8.080482630114       1.530520000000       0.615559882075      -0.047753837921      -0.000023300393      -0.032691728421
