20
Config_type=bulk_beta_phase Weight=1.0 Lattice="12.010215558 0.000000000 -2.922874858 0.000000000 3.061035166 0.000000000 0.000000000 0.000000000 5.832349572" Energy=-170.58988940 Virial="5.11109 0.00036 0.19555 0.00036 5.59710 -0.00003 0.19555 -0.00003 5.55972" pbc="T T T" Properties=species:S:1:pos:R:3:forces:R:3
Ga	      1.90738      1.53052      1.36727         0.013608     -0.000048     -0.016513
Ga	      4.09773      0.00000      3.00365        -0.013715      0.000006      0.016333
Ga	      1.08326      0.00000      4.37350         0.010132      0.000021     -0.014814
Ga	      4.92185      1.53052     -0.00259        -0.009842      0.000331      0.014876
Ga	      7.91248      0.00000     -0.09417         0.013810      0.000004     -0.016332
Ga	     10.10284      1.53052      1.54221        -0.013690     -0.000047      0.016335
Ga	      7.08836      1.53052      2.91207         0.009481     -0.000064     -0.014850
Ga	     10.92696      0.00000     -1.46403        -0.009415      0.000022      0.014856
O	      5.96364      0.00000      0.04295        -0.007513      0.000029     -0.019460
O	      0.04147      1.53052      4.32796         0.007476     -0.000069      0.019448
O	      2.07885      0.00000      2.77685         0.006110     -0.000004     -0.002061
O	      3.92626      1.53052      1.59406        -0.006128     -0.000033      0.002096
O	      4.01334      1.53052      4.22212        -0.007016     -0.000044     -0.002143
O	      1.99177      0.00000      0.14879         0.006996      0.000007      0.002210
O	     11.96875      1.53052     -1.41849        -0.007503     -0.000067     -0.019440
O	      6.04657      0.00000      2.86652         0.007526      0.000028      0.019492
O	      8.08396      1.53052      1.31542         0.006000     -0.000033     -0.002063
O	      9.93137      0.00000      0.13262        -0.006178     -0.000004      0.002098
O	     10.01845      0.00000      2.76068        -0.007014      0.000007     -0.002109
O	      7.99688      1.53052     -1.31264         0.006877     -0.000044      0.002043
