ITEM: TIMESTEP
0
ITEM: NUMBER OF ATOMS
40
ITEM: BOX BOUNDS pp pp pp
0.0000000000000000e+00 8.6436928329999994e+00
0.0000000000000000e+00 5.0334936770000001e+00
0.0000000000000000e+00 9.2490053139999997e+00
ITEM: ATOMS id type c_pe_atom
1 2      -4.457939037038
2 2      -4.457937873182
3 2      -3.989538959258
4 2      -3.989535715811
5 2      -4.609605663768
6 2      -4.389148006753
7 2      -4.389147761710
8 2      -4.609615204427
9 2      -3.989154530666
10 2      -3.989143212704
11 2      -4.457038958894
12 2      -4.457045532455
13 2      -4.610242436458
14 2      -4.389235757792
15 2      -4.389236443186
16 2      -4.610245440495
17 1     -11.422056945658
18 1     -11.394727538646
19 1     -11.332840349066
20 1     -10.774710064583
21 1     -11.422073885889
22 1     -11.312225789659
23 1     -11.332847817810
24 1     -10.774725541076
25 1     -11.312119330926
26 1     -11.422033292332
27 1     -10.774432617655
28 1     -11.332676819687
29 1     -11.395236425214
30 1     -11.422036289590
31 1     -11.239156436711
32 1     -11.238930105546
33 1     -11.395238099755
34 1     -11.312220233343
35 1     -11.239160744102
36 1     -11.238940158450
37 1     -11.312111259141
38 1     -11.394736758034
39 1     -10.774444926397
40 1     -11.332686714127
