ITEM: TIMESTEP
0
ITEM: NUMBER OF ATOMS
30
ITEM: BOX BOUNDS xy xz yz pp pp pp
-2.5571763690000000e+00 5.1143527579999999e+00 -2.5571763690000000e+00
0.0000000000000000e+00 4.4291598350000001e+00 0.0000000000000000e+00
0.0000000000000000e+00 1.3768203757000000e+01 0.0000000000000000e+00
ITEM: ATOMS id type x y z fx fy fz
1 2       0.000000000000       0.000000000000       1.984540000000       0.000036789243       0.000020063970      -0.063671508846
2 2       0.000000006667       2.952770000000       0.310170000000       0.000037559577       0.000061496066       0.063573536022
3 2       2.557180003333       1.476390000000       2.604860000000      -0.000052215491      -0.000053463076       0.063606649018
4 2       0.000000006667       2.952770000000       4.279240000000       0.000013113973       0.000047070460      -0.063555747550
5 2       2.557180003333       1.476390000000       6.573940000000      -0.000046599695      -0.000061251245      -0.063613303931
6 2       0.000000000000       0.000000000000       4.899560000000       0.000007277789      -0.000017869568       0.063708449696
7 2       0.000000006667       2.952770000000       7.194270000000       0.000038890814       0.000065937789       0.063559955097
8 2       0.000000000000       0.000000000000       8.868640000000       0.000036651934       0.000015165863      -0.063652166470
9 2       0.000000006667       2.952770000000      11.163350000000      -0.000011896638       0.000047531572      -0.063657244287
10 2       2.557180003333       1.476390000000       9.488960000000      -0.000057078723      -0.000052761682       0.063625753097
11 2       0.000000000000       0.000000000000      11.783660000000       0.000006134394      -0.000018332683       0.063681205007
12 2       2.557180003333       1.476390000000      13.458040000000      -0.000047341058      -0.000059305095      -0.063584868131
13 1       4.339510003030       1.342060000000       3.442050000000       0.028989451482      -0.050065632453       0.000035972784
14 1       1.549680000000       0.000000000000       3.442050000000      -0.057842472941       0.000003662047       0.000027460217
15 1       1.782340006970       3.087100000000       3.442050000000       0.028880541662       0.050073607103       0.000049940931
16 1       3.332020000303       0.134320000000       1.147350000000      -0.028949865787       0.050170432361       0.000033693658
17 1       3.332020006363       2.818450000000       1.147350000000      -0.028962126671      -0.050129810433       0.000040777479
18 1       1.007500003333       1.476390000000       1.147350000000       0.057853274197      -0.000063632225       0.000074328706
19 1       1.782340006363       2.818450000000       8.031450000000       0.028918878648      -0.050139575442       0.000037806809
20 1       4.106860003333       1.476390000000       8.031450000000      -0.057894727679      -0.000069755267       0.000089652524
21 1       1.782340000303       0.134320000000       8.031450000000       0.028893847181       0.050186314542       0.000066647693
22 1       0.774840003637       1.610710000000       5.736760000000      -0.028940288373       0.050111703646      -0.000109775852
23 1       0.774840009697       4.294840000000       5.736760000000      -0.028888970653      -0.050181864769      -0.000118364448
24 1      -1.549679993333       2.952770000000       5.736760000000       0.057871476764       0.000087988949      -0.000135615646
25 1      -0.774839990303       4.294840000000      12.620860000000       0.028904391284      -0.050177199586      -0.000087562395
26 1       1.549680006667       2.952770000000      12.620860000000      -0.057854829994       0.000081194928      -0.000107591709
27 1      -0.774839996363       1.610710000000      12.620860000000       0.028964932276       0.050110214368      -0.000094572598
28 1       3.332010006970       3.087100000000      10.326150000000      -0.028829732743       0.050083240323       0.000085407733
29 1       0.774840003030       1.342060000000      10.326150000000      -0.028945164268      -0.050064219476       0.000038970270
30 1       3.564670000000       0.000000000000      10.326150000000       0.057870099498      -0.000010950985       0.000052115123
