ITEM: TIMESTEP
0
ITEM: NUMBER OF ATOMS
30
ITEM: BOX BOUNDS xy xz yz pp pp pp
-2.5571763690000000e+00 5.1143527579999999e+00 -2.5571763690000000e+00
0.0000000000000000e+00 4.4291598350000001e+00 0.0000000000000000e+00
0.0000000000000000e+00 1.3768203757000000e+01 0.0000000000000000e+00
ITEM: ATOMS id type c_pe_atom
1 2      -5.373048357314
2 2      -5.373034002232
3 2      -5.373116893035
4 2      -5.373218262658
5 2      -5.373008844014
6 2      -5.373164566965
7 2      -5.373001673930
8 2      -5.373049656120
9 2      -5.373227492564
10 2      -5.373121253231
11 2      -5.373166296799
12 2      -5.373052492640
13 1      -6.309487244037
14 1      -6.309558528221
15 1      -6.309550634634
16 1      -6.309616494870
17 1      -6.309604855446
18 1      -6.309628784355
19 1      -6.309636981996
20 1      -6.309609968302
21 1      -6.309650551645
22 1      -6.309605063505
23 1      -6.309591615423
24 1      -6.309597147815
25 1      -6.309580743621
26 1      -6.309580491357
27 1      -6.309516662017
28 1      -6.309549739615
29 1      -6.309562108847
30 1      -6.309548947578
