ITEM: TIMESTEP
0
ITEM: NUMBER OF ATOMS
30
ITEM: BOX BOUNDS xy xz yz pp pp pp
-2.5571763690000000e+00 5.1143527579999999e+00 -2.5571763690000000e+00
0.0000000000000000e+00 4.4291598350000001e+00 0.0000000000000000e+00
0.0000000000000000e+00 1.3768203757000000e+01 0.0000000000000000e+00
ITEM: ATOMS id type v_vir_xx v_vir_yy v_vir_zz v_vir_xy v_vir_xz v_vir_yz
1 2      -2.848900731567      -2.848960092731      -1.403546435576       0.000002172300      -0.000016987163      -0.000018834194
2 2      -2.848965538624      -2.848889479545      -1.403615170840      -0.000042895676       0.000011566154       0.000014722709
3 2      -2.848957455767      -2.848916525591      -1.403595968475      -0.000003298011      -0.000019232845      -0.000012931011
4 2      -2.848889379086      -2.848883622751      -1.403440042950      -0.000014477248      -0.000002280410      -0.000009578301
5 2      -2.848940522114      -2.848874944695      -1.403651738553       0.000012074466       0.000018600380       0.000017831242
6 2      -2.848847402561      -2.848903452636      -1.403415941438       0.000012643387      -0.000003864297      -0.000004744601
7 2      -2.848972285412      -2.848900628499      -1.403613100618       0.000000505751       0.000022766308       0.000020537363
8 2      -2.848894862910      -2.848956978828      -1.403524038647       0.000039060622      -0.000022500192      -0.000014029453
9 2      -2.848858328257      -2.848852143135      -1.403429227782      -0.000012541856       0.000010887848      -0.000003419404
10 2      -2.848918557034      -2.848902436826      -1.403597514005       0.000015574822      -0.000019142157      -0.000012517238
11 2      -2.848843519778      -2.848909219344      -1.403378990059       0.000017345443       0.000007751070      -0.000012088669
12 2      -2.848950969563      -2.848871467556      -1.403592500797      -0.000025939201       0.000012336263       0.000017191204
13 1       2.118951648705       2.940683653019       1.552343925107      -0.711597506979       0.704785697492       0.406913030066
14 1       3.351531404961       1.708174401085       1.552341732834      -0.000005539283      -0.000005494293      -0.813838464744
15 1       2.119006769033       2.940683028498       1.552346274108       0.711636239561      -0.704801162724       0.406908857423
16 1       2.118937422607       2.940629140293       1.552322971479      -0.711597616117       0.704798377742       0.406910624972
17 1       2.118905015550       2.940634692846       1.552341520685       0.711608529084      -0.704778704681       0.406925305497
18 1       3.351525518472       1.708071601511       1.552338608907       0.000038409687      -0.000021598285      -0.813831957544
19 1       2.118913939187       2.940628087127       1.552320376884      -0.711618723851       0.704796204589       0.406914001840
20 1       3.351475217354       1.708052170700       1.552319602892      -0.000039616451       0.000015594440      -0.813814885656
21 1       2.118953335376       2.940618127499       1.552301946672       0.711610747994      -0.704811571654       0.406906579040
22 1       2.118917791148       2.940652034907       1.552356344373      -0.711605981783       0.704801022919       0.406925074260
23 1       2.118960409780       2.940612900694       1.552333011557       0.711618762806      -0.704809864835       0.406910298414
24 1       3.351493211834       1.708057432478       1.552338319964      -0.000063470330       0.000026789463      -0.813830394967
25 1       2.118977009069       2.940624744424       1.552317047239      -0.711605175037       0.704810531879       0.406910865687
26 1       3.351516330269       1.708074699572       1.552324756434       0.000047523693      -0.000018486715      -0.813835429556
27 1       2.118891513019       2.940655523852       1.552347472906       0.711602863350      -0.704780247348       0.406928742052
28 1       2.118992648784       2.940667064314       1.552355955451      -0.711648833059       0.704819785508       0.406901444222
29 1       2.118967441508       2.940686329795       1.552346379157       0.711593538602      -0.704815445279       0.406920505747
30 1       3.351500338859       1.708165030664       1.552344550692       0.000026159351      -0.000011425603      -0.813838369389
