30
Config_type=bulk_alpha_phase Weight=1.0 Lattice="5.114352758 0.000000000 0.000000000 -2.557176379 4.429159835 0.000000000 0.000000000 0.000000000 13.768203757" Energy=-255.01004060 Virial="-11.24107 -0.00001 -0.00002 -0.00001 -11.24110 0.00001 -0.00002 0.00001 -9.83119" pbc="T T T" Properties=species:S:1:pos:R:3:forces:R:3
Ga	      0.00000      0.00000      1.98454         0.000045      0.000024     -0.008726
Ga	      0.00000      2.95277      0.31017         0.000044      0.000071      0.008624
Ga	      2.55718      1.47639      2.60486        -0.000054     -0.000067      0.008690
Ga	      0.00000      2.95277      4.27924         0.000014      0.000060     -0.008613
Ga	      2.55718      1.47639      6.57394        -0.000050     -0.000068     -0.008680
Ga	      0.00000      0.00000      4.89956         0.000011     -0.000021      0.008831
Ga	      0.00000      2.95277      7.19427         0.000041      0.000073      0.008627
Ga	      0.00000      0.00000      8.86864         0.000038      0.000021     -0.008737
Ga	      0.00000      2.95277     11.16335        -0.000001      0.000060     -0.008793
Ga	      2.55718      1.47639      9.48896        -0.000062     -0.000062      0.008704
Ga	      0.00000      0.00000     11.78366         0.000005     -0.000021      0.008768
Ga	      2.55718      1.47639     13.45804        -0.000056     -0.000068     -0.008669
O	      4.33951      1.34206      3.44205        -0.002191      0.003895     -0.000005
O	      1.54968      0.00000      3.44205         0.004469     -0.000005     -0.000001
O	      1.78234      3.08710      3.44205        -0.002274     -0.003879      0.000018
O	      3.33202      0.13432      1.14735         0.002175     -0.003753      0.000043
O	      3.33202      2.81845      1.14735         0.002177      0.003789      0.000052
O	      1.00750      1.47639      1.14735        -0.004410     -0.000057      0.000077
O	      1.78234      2.81845      8.03145        -0.002191      0.003778      0.000071
O	      4.10686      1.47639      8.03145         0.004351     -0.000084      0.000121
O	      1.78234      0.13432      8.03145        -0.002245     -0.003717      0.000095
O	      0.77484      1.61071      5.73676         0.002194     -0.003782     -0.000133
O	      0.77484      4.29484      5.73676         0.002222      0.003723     -0.000147
O	     -1.54968      2.95277      5.73676        -0.004368      0.000076     -0.000167
O	     -0.77484      4.29484     12.62086        -0.002187      0.003730     -0.000043
O	      1.54968      2.95277     12.62086         0.004389      0.000063     -0.000067
O	     -0.77484      1.61071     12.62086        -0.002172     -0.003777     -0.000050
O	      3.33201      3.08710     10.32615         0.002264     -0.003887      0.000058
O	      0.77484      1.34206     10.32615         0.002235      0.003869      0.000019
O	      3.56467      0.00000     10.32615        -0.004411      0.000017      0.000032
