ITEM: TIMESTEP
0
ITEM: NUMBER OF ATOMS
40
ITEM: BOX BOUNDS pp pp pp
0.0000000000000000e+00 8.6436928329999994e+00
0.0000000000000000e+00 5.0334936770000001e+00
0.0000000000000000e+00 9.2490053139999997e+00
ITEM: ATOMS id type c_pe_atom
1 2      -4.989841151013
2 2      -4.989921760565
3 2      -6.472591353917
4 2      -6.472634085395
5 2      -4.367128407762
6 2      -2.158603444624
7 2      -2.158522042769
8 2      -4.367088900837
9 2      -6.470472458734
10 2      -6.470411173312
11 2      -4.991654188823
12 2      -4.991622519041
13 2      -4.363498355201
14 2      -2.160177670607
15 2      -2.160199831134
16 2      -4.363461492203
17 1      -4.688978954327
18 1      -3.532259432560
19 1      -4.258725235170
20 1     -12.400523518204
21 1      -4.688876175894
22 1      -8.535106187987
23 1      -4.258644206519
24 1     -12.400398890383
25 1      -8.536332563341
26 1      -4.683504651350
27 1     -12.400619199999
28 1      -4.259766980871
29 1      -3.530912494946
30 1      -4.683402843176
31 1      -7.859098509986
32 1      -7.860953433575
33 1      -3.531041329858
34 1      -8.535202152799
35 1      -7.858977282326
36 1      -7.860882640340
37 1      -8.536452838515
38 1      -3.532198374560
39 1     -12.400530550045
40 1      -4.259586309254
