ITEM: TIMESTEP
0
ITEM: NUMBER OF ATOMS
40
ITEM: BOX BOUNDS pp pp pp
0.0000000000000000e+00 8.6436928329999994e+00
0.0000000000000000e+00 5.0334936770000001e+00
0.0000000000000000e+00 9.2490053139999997e+00
ITEM: ATOMS id type x y z fx fy fz
1 2       1.360650000000       1.554630000000       8.207510000000      -0.096369374073       0.191994915637      -0.064008470549
2 2       3.068300000000       4.071370000000       8.207510000000       0.096276715342       0.192082745912      -0.064020645422
3 2       5.682260000000       0.902730000000       7.382420000000       0.097917748922      -0.109693885213      -0.039036636378
4 2       7.390370000000       3.419480000000       7.382430000000      -0.097722047474      -0.109800654292      -0.039156379508
5 2       4.643760000000       3.406620000000       5.515880000000      -0.151707061082      -0.033077069804      -0.045933845362
6 2       1.453720000000       3.453810000000       5.637100000000      -0.172831337199       0.015953603497      -0.250693260382
7 2       2.975220000000       0.937070000000       5.637100000000       0.172897789320       0.015776835582      -0.250689783851
8 2       8.428890000000       0.889870000000       5.515880000000       0.151586962694      -0.033066143791      -0.045871132851
9 2       1.360320000000       1.613630000000       2.758010000000       0.096993926855       0.110981387362      -0.038827189243
10 2       3.068640000000       4.130370000000       2.758010000000      -0.097048378239       0.111188452933      -0.038738718084
11 2       5.682010000000       0.962830000000       3.583030000000      -0.094845792901      -0.196651783923      -0.067344122023
12 2       7.390630000000       3.479580000000       3.583030000000       0.094893103169      -0.196797600121      -0.067383262620
13 2       4.107340000000       1.627010000000       0.891510000000       0.152479065274       0.034876826703      -0.043593738178
14 2       5.775400000000       4.096450000000       1.012270000000      -0.170038936691      -0.015842368468      -0.247671656951
15 2       7.297240000000       1.579710000000       1.012270000000       0.170070405035      -0.015987292755      -0.247623848245
16 2       0.321610000000       4.143760000000       0.891510000000      -0.152515479314       0.034993397165      -0.043527669610
17 1       7.217510000000       1.759070000000       4.377620000000       0.095209911516      -0.069098743481      -0.032323510592
18 1       0.020250000000       0.759520000000       0.012140000000      -0.016012561032       0.062545334028       0.136938669586
19 1       7.257990000000       0.114320000000       6.835420000000       0.148036993985      -0.075672533554       0.073993942884
20 1       7.196100000000       4.914440000000       2.116550000000       0.050000006358       0.215539090631       0.072799677752
21 1       5.855130000000       4.275820000000       4.377610000000      -0.095230902647      -0.069201922617      -0.032191283713
22 1       7.320610000000       3.298150000000       9.234870000000      -0.030654332762      -0.000557890214       0.026793571623
23 1       5.814650000000       2.631070000000       6.835420000000      -0.148132281502      -0.075731005756       0.074009981769
24 1       5.876550000000       2.397700000000       2.116550000000      -0.050049622608       0.215446587714       0.072888079277
25 1       1.430040000000       1.735210000000       4.610580000000       0.030503632742       0.000804503974       0.026345171179
26 1       2.895820000000       0.758140000000       9.002570000000       0.094945690833       0.067487211689      -0.034793750058
27 1       1.555450000000       0.118590000000       6.741740000000      -0.054929103733      -0.212874179096       0.070972504029
28 1       1.492910000000       4.918770000000       2.211240000000      -0.150891334483       0.076098544067       0.072256525395
29 1       0.087160000000       4.274330000000       4.636630000000       0.018461090405      -0.063577842491       0.139699296082
30 1       1.533120000000       3.274890000000       9.002570000000      -0.094852449712       0.067478061313      -0.034845578679
31 1       0.164390000000       2.403850000000       6.785790000000      -0.085578331464       0.073254733740       0.122724060491
32 1       8.586230000000       2.629360000000       2.161420000000       0.086246349342      -0.072179082252       0.121594687717
33 1       4.341790000000       1.757580000000       4.636640000000      -0.018398243360      -0.063508247003       0.139625571087
34 1       5.752030000000       0.781410000000       9.234870000000       0.030627383583      -0.000660888182       0.026717110896
35 1       4.264550000000       4.920600000000       6.785790000000       0.085542980844       0.073131385157       0.122713878168
36 1       4.486420000000       0.112610000000       2.161420000000      -0.086267863204      -0.072124459501       0.121582553180
37 1       2.998910000000       4.251960000000       4.610580000000      -0.030529940644       0.000747030309       0.026394114748
38 1       4.408690000000       3.276260000000       0.012140000000       0.016113678754       0.062614162233       0.136939354349
39 1       2.873490000000       2.635330000000       6.741740000000       0.054933843849      -0.212761097276       0.071047032798
40 1       2.936050000000       2.402030000000       2.211240000000       0.150868095303       0.075869880142       0.072238699288
