ITEM: TIMESTEP
0
ITEM: NUMBER OF ATOMS
80
ITEM: BOX BOUNDS pp pp pp
0.0000000000000000e+00 9.3733007770000007e+00
0.0000000000000000e+00 9.3733007770000007e+00
0.0000000000000000e+00 9.3733007770000007e+00
ITEM: ATOMS id type v_vir_xx v_vir_yy v_vir_zz v_vir_xy v_vir_xz v_vir_yz
1 2      -5.897837130386      -5.897828210665      -5.897842631690      -1.124499459094       1.124503351714       1.124485813292
2 2      -5.078503143104      -5.086663955017      -5.173347045380       0.000002048582       0.559598305288       0.000001239634
3 2      -5.173350201498      -5.078500541010      -5.086718864073       0.559575244687      -0.000000842596      -0.000015003476
4 2      -5.173423271972      -5.078540134376      -5.086676172283      -0.559574081076       0.000014449171      -0.000010716411
5 2      -5.086718864073      -5.173350201498      -5.078500541010      -0.000000842596      -0.000015003476       0.559575244687
6 2      -5.086707616543      -5.173368080062      -5.078512702765      -0.000014850613      -0.000002240816      -0.559577184630
7 2      -5.078540134376      -5.086676172283      -5.173423271972      -0.000010716411      -0.559574081076       0.000014449171
8 2      -5.897842631690      -5.897837130386      -5.897828210665       1.124503351714       1.124485813292      -1.124499459094
9 2      -5.897855288500      -5.897855288500      -5.897855288500      -1.124498687053      -1.124498687053      -1.124498687053
10 2      -5.897828210665      -5.897842631690      -5.897837130386       1.124485813292      -1.124499459094       1.124503351714
11 2      -5.078512702765      -5.086707616543      -5.173368080062      -0.000002240816      -0.559577184630      -0.000014850613
12 2      -5.086676172283      -5.173423271972      -5.078540134376       0.000014449171      -0.000010716411      -0.559574081076
13 2      -5.086663955017      -5.173347045380      -5.078503143104       0.000001239634       0.000002048582       0.559598305288
14 2      -5.173368080062      -5.078512702765      -5.086707616543      -0.559577184630      -0.000014850613      -0.000002240816
15 2      -5.173347045380      -5.078503143104      -5.086663955017       0.559598305288       0.000001239634       0.000002048582
16 2      -5.078500541010      -5.086718864073      -5.173350201498      -0.000015003476       0.559575244687      -0.000000842596
17 2      -5.897815553954      -5.897824461454      -5.897810042937      -1.124490483857       1.124486584190       1.124504124429
18 2      -5.078573366418      -5.086836488589      -5.173460136866       0.000012758717       0.559530553807      -0.000015838353
19 2      -5.173371640550      -5.078515677264      -5.086716612477       0.559577573123       0.000015437088       0.000000187961
20 2      -5.173383905256      -5.078536374805      -5.086824271206      -0.559554775649      -0.000001816508       0.000004476068
21 2      -5.086716612477      -5.173371640550      -5.078515677264       0.000015437088       0.000000187961       0.559577573123
22 2      -5.086727861976      -5.173353755466      -5.078503516352       0.000002220318       0.000008474048      -0.559575632768
23 2      -5.078536374805      -5.086824271206      -5.173383905256       0.000004476068      -0.559554775649      -0.000001816508
24 2      -5.897810042937      -5.897815553954      -5.897824461454       1.124486584190       1.124504124429      -1.124490483857
25 2      -5.897797386777      -5.897797386777      -5.897797386777      -1.124491250837      -1.124491250837      -1.124491250837
26 2      -5.897824461454      -5.897810042937      -5.897815553954       1.124504124429      -1.124490483857       1.124486584190
27 2      -5.078503516352      -5.086727861976      -5.173353755466       0.000008474048      -0.559575632768       0.000002220318
28 2      -5.086824271206      -5.173383905256      -5.078536374805      -0.000001816508       0.000004476068      -0.559554775649
29 2      -5.086836488589      -5.173460136866      -5.078573366418      -0.000015838353       0.000012758717       0.559530553807
30 2      -5.173353755466      -5.078503516352      -5.086727861976      -0.559575632768       0.000002220318       0.000008474048
31 2      -5.173460136866      -5.078573366417      -5.086836488589       0.559530553807      -0.000015838353       0.000012758717
32 2      -5.078515677264      -5.086716612477      -5.173371640550       0.000000187961       0.559577573123       0.000015437088
33 1       3.462573229169       3.436635283464       2.961152682687      -0.407235739161       0.709783875214       0.209114056586
34 1       3.462568636842       3.436611919680       2.961129731222       0.407217106744      -0.709782490441       0.209106746421
35 1       3.436642547170       2.961129660380       3.462540028429      -0.209116809064      -0.407228960937      -0.709768051630
36 1       3.436651314870       2.961128914793       3.462580942734       0.209114337801      -0.407209432304       0.709765378458
37 1       3.436634319078       2.961123575541       3.462534944956      -0.209104888160       0.407213376250       0.709769473143
38 1       3.436635829448       2.961146495912       3.462588607450       0.209107542716       0.407223907586      -0.709769355568
39 1       3.462540028429       3.436642547170       2.961129660380      -0.407228960937      -0.709768051630      -0.209116809064
40 1       3.462534944956       3.436634319078       2.961123575541       0.407213376250       0.709769473143      -0.209104888160
41 1       2.961146495912       3.462588607450       3.436635829448      -0.709769355568       0.209107542716       0.407223907586
42 1       2.961140710203       3.462563492134       3.436611715507       0.709780838144      -0.209107464270       0.407226759571
43 1       2.961129660380       3.462540028429       3.436642547170      -0.709768051630      -0.209116809064      -0.407228960937
44 1       2.961152682687       3.462573229169       3.436635283464       0.709783875214       0.209114056586      -0.407235739161
45 1       2.961140002150       3.462555334972       3.436642336978      -0.709779671785      -0.209109642737      -0.407215336028
46 1       2.961123575541       3.462534944956       3.436634319078       0.709769473143      -0.209104888160       0.407213376250
47 1       2.961129731222       3.462568636842       3.436611919680      -0.709782490441       0.209106746421       0.407217106744
48 1       2.961128914793       3.462580942734       3.436651314870       0.709765378458       0.209114337801      -0.407209432304
49 1       3.462563492134       3.436611715507       2.961140710203       0.407226759571       0.709780838144      -0.209107464270
50 1       3.462555334972       3.436642336978       2.961140002150      -0.407215336028      -0.709779671785      -0.209109642737
51 1       3.436611715507       2.961140710203       3.462563492134      -0.209107464270       0.407226759571       0.709780838144
52 1       3.436611919680       2.961129731222       3.462568636842       0.209106746421       0.407217106744      -0.709782490441
53 1       3.436635283464       2.961152682687       3.462573229169       0.209114056586      -0.407235739161       0.709783875214
54 1       3.436642336978       2.961140002150       3.462555334972      -0.209109642737      -0.407215336028      -0.709779671785
55 1       3.462580942734       3.436651314870       2.961128914793      -0.407209432304       0.709765378458       0.209114337801
56 1       3.462588607450       3.436635829448       2.961146495912       0.407223907586      -0.709769355568       0.209107542716
57 1       3.462552158908       3.436644645895       2.961140485237      -0.407230126058       0.709769079254       0.209096501515
58 1       3.462568315019       3.436661574623       2.961159981590       0.407223208707      -0.709781355101       0.209113023724
59 1       3.436610912862       2.961128261513       3.462568511485      -0.209112135325      -0.407221921559      -0.709763917181
60 1       3.436610853944       2.961142440491       3.462538682480       0.209119202733      -0.407218950768       0.709780299666
61 1       3.436642980775       2.961164649031       3.462584179528      -0.209124035998       0.407218052793       0.709779019158
62 1       3.436632769726       2.961128307858       3.462519439296       0.209116783692       0.407230027343      -0.709765429437
63 1       3.462568511485       3.436610912862       2.961128261513      -0.407221921559      -0.709763917181      -0.209112135325
64 1       3.462584179528       3.436642980775       2.961164649031       0.407218052793       0.709779019158      -0.209124035998
65 1       2.961128307858       3.462519439296       3.436632769726      -0.709765429437       0.209116783692       0.407230027343
66 1       2.961135569746       3.462562377557       3.436653069297       0.709769300582      -0.209107710020       0.407236053052
67 1       2.961128261513       3.462568511485       3.436610912862      -0.709763917181      -0.209112135325      -0.407221921559
68 1       2.961140485237       3.462552158908       3.436644645895       0.709769079254       0.209096501514      -0.407230126058
69 1       2.961166594039       3.462581134711       3.436646299196      -0.709786988587      -0.209105517764      -0.407228032953
70 1       2.961164649031       3.462584179528       3.436642980775       0.709779019158      -0.209124035998       0.407218052793
71 1       2.961159981590       3.462568315019       3.436661574623      -0.709781355101       0.209113023724       0.407223208707
72 1       2.961142440491       3.462538682480       3.436610853944       0.709780299666       0.209119202733      -0.407218950768
73 1       3.462562377557       3.436653069297       2.961135569746       0.407236053052       0.709769300582      -0.209107710020
74 1       3.462581134711       3.436646299196       2.961166594039      -0.407228032953      -0.709786988587      -0.209105517764
75 1       3.436653069297       2.961135569746       3.462562377557      -0.209107710020       0.407236053052       0.709769300582
76 1       3.436661574623       2.961159981590       3.462568315019       0.209113023724       0.407223208707      -0.709781355101
77 1       3.436644645895       2.961140485237       3.462552158908       0.209096501515      -0.407230126058       0.709769079254
78 1       3.436646299196       2.961166594039       3.462581134711      -0.209105517764      -0.407228032953      -0.709786988587
79 1       3.462538682480       3.436610853944       2.961142440491      -0.407218950768       0.709780299666       0.209119202733
80 1       3.462519439296       3.436632769726       2.961128307858       0.407230027343      -0.709765429437       0.209116783692
