ITEM: TIMESTEP
0
ITEM: NUMBER OF ATOMS
80
ITEM: BOX BOUNDS pp pp pp
0.0000000000000000e+00 9.2603694420000000e+00
0.0000000000000000e+00 9.2603694420000000e+00
0.0000000000000000e+00 9.2603694420000000e+00
ITEM: ATOMS id type c_pe_atom
1 2      -4.983573658254
2 2      -4.720898700212
3 2      -4.720950591604
4 2      -4.720899158288
5 2      -4.720950591604
6 2      -4.720931409434
7 2      -4.720899158288
8 2      -4.983573658254
9 2      -4.983565909994
10 2      -4.983573658254
11 2      -4.720931409434
12 2      -4.720899158288
13 2      -4.720898700212
14 2      -4.720931409434
15 2      -4.720898700212
16 2      -4.720950591604
17 2      -4.983581405132
18 2      -4.720941233744
19 2      -4.720889271486
20 2      -4.720940774874
21 2      -4.720889271486
22 2      -4.720908452777
23 2      -4.720940774874
24 2      -4.983581405132
25 2      -4.983589150725
26 2      -4.983581405132
27 2      -4.720908452777
28 2      -4.720940774874
29 2      -4.720941233744
30 2      -4.720908452777
31 2      -4.720941233744
32 2      -4.720889271486
33 1      -6.683483886463
34 1      -6.683473923714
35 1      -6.683416926344
36 1      -6.683491700913
37 1      -6.683436716029
38 1      -6.683461293705
39 1      -6.683416926344
40 1      -6.683436716029
41 1      -6.683461293705
42 1      -6.683485760075
43 1      -6.683416926344
44 1      -6.683483886463
45 1      -6.683545919799
46 1      -6.683436716029
47 1      -6.683473923714
48 1      -6.683491700913
49 1      -6.683485760075
50 1      -6.683545919799
51 1      -6.683485760075
52 1      -6.683473923714
53 1      -6.683483886463
54 1      -6.683545919799
55 1      -6.683491700913
56 1      -6.683461293705
57 1      -6.683500509316
58 1      -6.683447832402
59 1      -6.683552089952
60 1      -6.683444427020
61 1      -6.683529164871
62 1      -6.683537475413
63 1      -6.683552089952
64 1      -6.683529164871
65 1      -6.683537475413
66 1      -6.683468884548
67 1      -6.683552089952
68 1      -6.683500509316
69 1      -6.683405589301
70 1      -6.683529164871
71 1      -6.683447832402
72 1      -6.683444427020
73 1      -6.683468884548
74 1      -6.683405589301
75 1      -6.683468884548
76 1      -6.683447832402
77 1      -6.683500509316
78 1      -6.683405589301
79 1      -6.683444427020
80 1      -6.683537475413
