ITEM: TIMESTEP
0
ITEM: NUMBER OF ATOMS
80
ITEM: BOX BOUNDS pp pp pp
0.0000000000000000e+00 9.5050540009999995e+00
0.0000000000000000e+00 9.5050540009999995e+00
0.0000000000000000e+00 9.5050540009999995e+00
ITEM: ATOMS id type x y z fx fy fz
1 2       7.128790000000       2.376260000000       2.376260000000       0.000021132560       0.000066965757       0.000083797241
2 2       7.128790000000       4.409310000000       4.752530000000      -0.000003082687      -0.051283152313      -0.000047368573
3 2       0.000000000000       7.128790000000       0.343220000000      -0.000036231571      -0.000000118414       0.051197012377
4 2       0.000000000000       2.376260000000       4.409310000000      -0.000049096721       0.000085458197      -0.051260431644
5 2       0.343220000000       0.000000000000       7.128790000000       0.051197012376      -0.000036231571      -0.000000118414
6 2       0.343220000000       4.752530000000       2.376260000000       0.051183587223      -0.000060228190       0.000088420804
7 2       2.376260000000       4.409310000000       0.000000000000       0.000085458197      -0.051260431644      -0.000049096721
8 2       2.376260000000       7.128790000000       2.376260000000       0.000083797241       0.000021132560       0.000066965757
9 2       2.376260000000       2.376260000000       2.376260000000       0.000036280127       0.000036280127       0.000036280127
10 2       2.376260000000       2.376260000000       7.128790000000       0.000066965757       0.000083797241       0.000021132560
11 2       2.376260000000       0.343220000000       4.752530000000       0.000088420804       0.051183587223      -0.000060228190
12 2       4.409310000000       0.000000000000       2.376260000000      -0.051260431644      -0.000049096721       0.000085458197
13 2       4.409310000000       4.752530000000       7.128790000000      -0.051283152313      -0.000047368573      -0.000003082687
14 2       4.752530000000       2.376260000000       0.343220000000      -0.000060228190       0.000088420804       0.051183587223
15 2       4.752530000000       7.128790000000       4.409310000000      -0.000047368573      -0.000003082687      -0.051283152313
16 2       7.128790000000       0.343220000000       0.000000000000      -0.000000118414       0.051197012376      -0.000036231571
17 2       2.376260000000       7.128790000000       7.128790000000       0.000054272997       0.000005534287       0.000023525138
18 2       2.376260000000       9.161830000000       0.000000000000       0.000059145891      -0.051195436151      -0.000017563259
19 2       4.752530000000       2.376260000000       5.095750000000      -0.000028701662       0.000056179826       0.051132597455
20 2       4.752530000000       7.128790000000       9.161830000000      -0.000041568233       0.000029161320      -0.051218147157
21 2       5.095750000000       4.752530000000       2.376260000000       0.051132597455      -0.000028701662       0.000056179826
22 2       5.095750000000       0.000000000000       7.128790000000       0.051146021122      -0.000030434087       0.000026194332
23 2       7.128790000000       9.161830000000       4.752530000000       0.000029161320      -0.051218147157      -0.000041568233
24 2       7.128790000000       2.376260000000       7.128790000000       0.000023525138       0.000054272997       0.000005534287
25 2       7.128790000000       7.128790000000       7.128790000000       0.000004299111       0.000004299111       0.000004299111
26 2       7.128790000000       7.128790000000       2.376260000000       0.000005534287       0.000023525138       0.000054272997
27 2       7.128790000000       5.095750000000       0.000000000000       0.000026194332       0.051146021122      -0.000030434087
28 2       9.161830000000       4.752530000000       7.128790000000      -0.051218147157      -0.000041568233       0.000029161320
29 2       9.161830000000       0.000000000000       2.376260000000      -0.051195436151      -0.000017563259       0.000059145891
30 2       0.000000000000       7.128790000000       5.095750000000      -0.000030434087       0.000026194332       0.051146021122
31 2       0.000000000000       2.376260000000       9.161830000000      -0.000017563259       0.000059145891      -0.051195436151
32 2       2.376260000000       5.095750000000       4.752530000000       0.000056179827       0.051132597455      -0.000028701662
33 1       8.426320000000       5.821780000000       1.506870000000      -0.066289643644       0.019842982441       0.026657029709
34 1       8.426320000000       3.683280000000       3.245660000000      -0.066274758572      -0.019929591983      -0.026708574390
35 1       8.435800000000       1.506870000000       1.078730000000      -0.019832462010       0.026670780815       0.066337460598
36 1       8.435800000000       3.245660000000       5.831260000000      -0.019851093544      -0.026718166220       0.066295492491
37 1       1.069250000000       3.245660000000       1.078730000000       0.019854622285      -0.026731635792       0.066318233976
38 1       1.069250000000       1.506870000000       5.831260000000       0.019854946770       0.026665213543       0.066328860960
39 1       1.078730000000       8.435800000000       1.506870000000       0.066337460598      -0.019832462010       0.026670780815
40 1       1.078730000000       1.069250000000       3.245660000000       0.066318233975       0.019854622285      -0.026731635792
41 1       1.506870000000       5.831260000000       1.069250000000       0.026665213543       0.066328860960       0.019854946770
42 1       1.506870000000       3.673790000000       3.683280000000       0.026658688626      -0.066257108354      -0.019906374427
43 1       1.506870000000       1.078730000000       8.435800000000       0.026670780815       0.066337460598      -0.019832462010
44 1       1.506870000000       8.426320000000       5.821780000000       0.026657029709      -0.066289643644       0.019842982441
45 1       3.245660000000       3.673790000000       5.821780000000      -0.026720950241      -0.066219401966       0.019838078240
46 1       3.245660000000       1.078730000000       1.069250000000      -0.026731635792       0.066318233976       0.019854622285
47 1       3.245660000000       8.426320000000       3.683280000000      -0.026708574390      -0.066274758572      -0.019929591983
48 1       3.245660000000       5.831260000000       8.435800000000      -0.026718166220       0.066295492491      -0.019851093544
49 1       3.673790000000       3.683280000000       1.506870000000      -0.066257108354      -0.019906374427       0.026658688626
50 1       3.673790000000       5.821780000000       3.245660000000      -0.066219401966       0.019838078240      -0.026720950241
51 1       3.683280000000       1.506870000000       3.673790000000      -0.019906374427       0.026658688626      -0.066257108354
52 1       3.683280000000       3.245660000000       8.426320000000      -0.019929591983      -0.026708574390      -0.066274758572
53 1       5.821780000000       1.506870000000       8.426320000000       0.019842982441       0.026657029709      -0.066289643644
54 1       5.821780000000       3.245660000000       3.673790000000       0.019838078240      -0.026720950241      -0.066219401966
55 1       5.831260000000       8.435800000000       3.245660000000       0.066295492491      -0.019851093544      -0.026718166220
56 1       5.831260000000       1.069250000000       1.506870000000       0.066328860960       0.019854946770       0.026665213543
57 1       3.673790000000       1.069250000000       6.259400000000      -0.066246161991       0.019863069671       0.026634643888
58 1       3.673790000000       8.435800000000       7.998180000000      -0.066237378270      -0.019842361249      -0.026650545392
59 1       3.683280000000       6.259400000000       5.831260000000      -0.019952516842       0.026604928328       0.066336889369
60 1       3.683280000000       7.998180000000       1.078730000000      -0.019935322804      -0.026634314165       0.066350855391
61 1       5.821780000000       7.998180000000       5.831260000000       0.019867346387      -0.026630151304       0.066323774628
62 1       5.821780000000       6.259400000000       1.078730000000       0.019865569191       0.026619807432       0.066341154071
63 1       5.831260000000       3.683280000000       6.259400000000       0.066336889369      -0.019952516842       0.026604928328
64 1       5.831260000000       5.821780000000       7.998180000000       0.066323774628       0.019867346387      -0.026630151304
65 1       6.259400000000       1.078730000000       5.821780000000       0.026619807432       0.066341154071       0.019865569191
66 1       6.259400000000       8.426320000000       8.435800000000       0.026623667049      -0.066283024007      -0.019864122171
67 1       6.259400000000       5.831260000000       3.683280000000       0.026604928328       0.066336889369      -0.019952516842
68 1       6.259400000000       3.673790000000       1.069250000000       0.026634643888      -0.066246161991       0.019863069671
69 1       7.998180000000       8.426320000000       1.069250000000      -0.026647484236      -0.066288399846       0.019869422463
70 1       7.998180000000       5.831260000000       5.821780000000      -0.026630151304       0.066323774628       0.019867346387
71 1       7.998180000000       3.673790000000       8.435800000000      -0.026650545392      -0.066237378270      -0.019842361249
72 1       7.998180000000       1.078730000000       3.683280000000      -0.026634314165       0.066350855391      -0.019935322804
73 1       8.426320000000       8.435800000000       6.259400000000      -0.066283024007      -0.019864122171       0.026623667049
74 1       8.426320000000       1.069250000000       7.998180000000      -0.066288399846       0.019869422463      -0.026647484236
75 1       8.435800000000       6.259400000000       8.426320000000      -0.019864122171       0.026623667049      -0.066283024007
76 1       8.435800000000       7.998180000000       3.673790000000      -0.019842361249      -0.026650545392      -0.066237378270
77 1       1.069250000000       6.259400000000       3.673790000000       0.019863069671       0.026634643888      -0.066246161991
78 1       1.069250000000       7.998180000000       8.426320000000       0.019869422463      -0.026647484236      -0.066288399846
79 1       1.078730000000       3.683280000000       7.998180000000       0.066350855391      -0.019935322804      -0.026634314165
80 1       1.078730000000       5.821780000000       6.259400000000       0.066341154071       0.019865569191       0.026619807432
