ITEM: TIMESTEP
0
ITEM: NUMBER OF ATOMS
80
ITEM: BOX BOUNDS pp pp pp
0.0000000000000000e+00 9.5050540009999995e+00
0.0000000000000000e+00 9.5050540009999995e+00
0.0000000000000000e+00 9.5050540009999995e+00
ITEM: ATOMS id type v_vir_xx v_vir_yy v_vir_zz v_vir_xy v_vir_xz v_vir_yz
1 2      -4.696938067818      -4.696902873221      -4.696897353027      -0.787404170062       0.787412521820       0.787408444032
2 2      -3.872587207390      -3.620753429510      -3.932016210825       0.000011847609       0.606306233705       0.000000305380
3 2      -3.932053973072      -3.872624049730      -3.620704594489       0.606324322909      -0.000001601197       0.000003617014
4 2      -3.931983407017      -3.872517949573      -3.620745195609      -0.606307224398      -0.000006809536       0.000002196368
5 2      -3.620704594489      -3.932053973072      -3.872624049730      -0.000001601197       0.000003617014       0.606324322909
6 2      -3.620662678697      -3.931987464830      -3.872536169411       0.000008113275       0.000013266346      -0.606334084916
7 2      -3.872517949573      -3.620745195609      -3.931983407017       0.000002196368      -0.606307224398      -0.000006809536
8 2      -4.696897353027      -4.696938067818      -4.696902873221       0.787412521820       0.787408444032      -0.787404170062
9 2      -4.696874606141      -4.696874606141      -4.696874606141      -0.787401014344      -0.787401014344      -0.787401014344
10 2      -4.696902873221      -4.696897353027      -4.696938067818       0.787408444032      -0.787404170062       0.787412521820
11 2      -3.872536169411      -3.620662678697      -3.931987464830       0.000013266346      -0.606334084916       0.000008113275
12 2      -3.620745195609      -3.931983407017      -3.872517949573      -0.000006809536       0.000002196368      -0.606307224398
13 2      -3.620753429510      -3.932016210825      -3.872587207390       0.000000305380       0.000011847609       0.606306233705
14 2      -3.931987464830      -3.872536169411      -3.620662678697      -0.606334084916       0.000008113275       0.000013266346
15 2      -3.932016210825      -3.872587207390      -3.620753429510       0.606306233705       0.000000305380       0.000011847609
16 2      -3.872624049730      -3.620704594489      -3.932053973072       0.000003617014       0.606324322909      -0.000001601197
17 2      -4.696925645048      -4.696960834965      -4.696966360252      -0.787419940672       0.787411587861       0.787415670536
18 2      -3.872534072051      -3.620674358339      -3.931989023032      -0.000007097698       0.606324939013       0.000013049301
19 2      -3.931947975400      -3.872508020495      -3.620560579744       0.606344205783      -0.000011759201      -0.000008371521
20 2      -3.932021837203      -3.872603332111      -3.620682599990      -0.606323943318       0.000003344025      -0.000009793198
21 2      -3.620560579744      -3.931947975400      -3.872508020495      -0.000011759201      -0.000008371521       0.606344205783
22 2      -3.620602489353      -3.932014471397      -3.872595897619      -0.000004635460      -0.000005674820      -0.606334447223
23 2      -3.872603332111      -3.620682599990      -3.932021837203      -0.000009793198      -0.606323943318       0.000003344025
24 2      -4.696966360252      -4.696925645048      -4.696960834965       0.787411587861       0.787415670536      -0.787419940672
25 2      -4.696989113133      -4.696989113133      -4.696989113133      -0.787423096282      -0.787423096282      -0.787423096282
26 2      -4.696960834965      -4.696966360252      -4.696925645048       0.787415670536      -0.787419940672       0.787411587861
27 2      -3.872595897619      -3.620602489353      -3.932014471397      -0.000005674820      -0.606334447223      -0.000004635460
28 2      -3.620682599990      -3.932021837203      -3.872603332111       0.000003344025      -0.000009793198      -0.606323943318
29 2      -3.620674358339      -3.931989023032      -3.872534072051       0.000013049301      -0.000007097698       0.606324939013
30 2      -3.932014471397      -3.872595897619      -3.620602489353      -0.606334447223      -0.000004635460      -0.000005674820
31 2      -3.931989023032      -3.872534072051      -3.620674358339       0.606324939013       0.000013049301      -0.000007097698
32 2      -3.872508020495      -3.620560579744      -3.931947975400      -0.000008371521       0.606344205783      -0.000011759201
33 1       3.426012190170       3.308972578120       2.910031996734      -0.314587641126       0.667431840419       0.326456487454
34 1       3.425980932138       3.308980750622       2.910067977504       0.314584614443      -0.667445047294       0.326469694565
35 1       3.308975044546       2.910046908592       3.426030441309      -0.326459418903      -0.314577488208      -0.667423895349
36 1       3.308961121672       2.910048292686       3.425976674973       0.326462113098      -0.314590178767       0.667444675024
37 1       3.308994833974       2.910088840967       3.426032715420      -0.326477638079       0.314574964633       0.667435616985
38 1       3.308986344219       2.910043990462       3.425994573188       0.326461392679       0.314583348093      -0.667425007049
39 1       3.426030441309       3.308975044546       2.910046908592      -0.314577488208      -0.667423895349      -0.326459418903
40 1       3.426032715420       3.308994833974       2.910088840967       0.314574964633       0.667435616985      -0.326477638079
41 1       2.910043990462       3.425994573188       3.308986344219      -0.667425007049       0.326461392679       0.314583348093
42 1       2.910049454016       3.426024358788       3.308973872198       0.667433216924      -0.326455928163       0.314587483454
43 1       2.910046908592       3.426030441309       3.308975044546      -0.667423895349      -0.326459418903      -0.314577488208
44 1       2.910031996734       3.426012190170       3.308972578120       0.667431840419       0.326456487454      -0.314587641126
45 1       2.910059719574       3.426040019726       3.308960289491      -0.667451392270      -0.326461647241      -0.314594814773
46 1       2.910088840967       3.426032715420       3.308994833974       0.667435616985      -0.326477638079       0.314574964633
47 1       2.910067977504       3.425980932138       3.308980750622      -0.667445047294       0.326469694565       0.314584614443
48 1       2.910048292686       3.425976674973       3.308961121672       0.667444675024       0.326462113098      -0.314590178767
49 1       3.426024358788       3.308973872198       2.910049454016       0.314587483454       0.667433216924      -0.326455928163
50 1       3.426040019726       3.308960289491       2.910059719574      -0.314594814773      -0.667451392270      -0.326461647241
51 1       3.308973872198       2.910049454016       3.426024358788      -0.326455928163       0.314587483454       0.667433216924
52 1       3.308980750622       2.910067977504       3.425980932138       0.326469694565       0.314584614443      -0.667445047294
53 1       3.308972578120       2.910031996734       3.426012190170       0.326456487454      -0.314587641126       0.667431840419
54 1       3.308960289491       2.910059719574       3.426040019726      -0.326461647241      -0.314594814773      -0.667451392270
55 1       3.425976674973       3.308961121672       2.910048292686      -0.314590178767       0.667444675024       0.326462113098
56 1       3.425994573188       3.308986344219       2.910043990462       0.314583348093      -0.667425007049       0.326461392679
57 1       3.426036979285       3.308966030162       2.910040810552      -0.314582818815       0.667443380606       0.326448586395
58 1       3.426024422766       3.308941515420       2.910020014222       0.314591310136      -0.667447856266       0.326440810671
59 1       3.308974638565       2.910021135922       3.425958917826      -0.326453649557      -0.314578037572      -0.667429784915
60 1       3.308983839329       2.910040885614       3.426002410775       0.326461410834      -0.314571322585       0.667425204324
61 1       3.308961754530       2.910006290152       3.425979912106      -0.326450884307       0.314587042299       0.667432780309
62 1       3.308974967271       2.910030008711       3.426028340335       0.326456669961       0.314572678388      -0.667427194394
63 1       3.425958917826       3.308974638565       2.910021135922      -0.314578037572      -0.667429784915      -0.326453649557
64 1       3.425979912106       3.308961754530       2.910006290152       0.314587042299       0.667432780309      -0.326450884307
65 1       2.910030008711       3.426028340335       3.308974967271      -0.667427194394       0.326456669961       0.314572678388
66 1       2.910017396321       3.425991263581       3.308953102723       0.667443491415      -0.326444133962       0.314582468886
67 1       2.910021135922       3.425958917826       3.308974638565      -0.667429784915      -0.326453649557      -0.314578037572
68 1       2.910040810552       3.426036979285       3.308966030162       0.667443380606       0.326448586395      -0.314582818815
69 1       2.910034230162       3.425998887980       3.308973604963      -0.667440019707      -0.326453874876      -0.314581617291
70 1       2.910006290152       3.425979912106       3.308961754530       0.667432780309      -0.326450884307       0.314587042299
71 1       2.910020014222       3.426024422766       3.308941515420      -0.667447856266       0.326440810671       0.314591310136
72 1       2.910040885614       3.426002410775       3.308983839329       0.667425204324       0.326461410834      -0.314571322585
73 1       3.425991263581       3.308953102723       2.910017396321       0.314582468886       0.667443491415      -0.326444133962
74 1       3.425998887980       3.308973604963       2.910034230162      -0.314581617291      -0.667440019707      -0.326453874876
75 1       3.308953102723       2.910017396321       3.425991263581      -0.326444133962       0.314582468886       0.667443491415
76 1       3.308941515420       2.910020014222       3.426024422766       0.326440810671       0.314591310136      -0.667447856266
77 1       3.308966030162       2.910040810552       3.426036979285       0.326448586395      -0.314582818815       0.667443380606
78 1       3.308973604963       2.910034230162       3.425998887980      -0.326453874876      -0.314581617291      -0.667440019707
79 1       3.426002410775       3.308983839329       2.910040885614      -0.314571322585       0.667425204324       0.326461410834
80 1       3.426028340335       3.308974967271       2.910030008711       0.314572678388      -0.667427194394       0.326456669961
