ITEM: TIMESTEP
0
ITEM: NUMBER OF ATOMS
30
ITEM: BOX BOUNDS xy xz yz pp pp pp
-2.5622400845000000e+00 5.1244801889999998e+00 -2.5622400845000000e+00
0.0000000000000000e+00 4.4379304480000004e+00 0.0000000000000000e+00
0.0000000000000000e+00 1.3795467525999999e+01 0.0000000000000000e+00
ITEM: ATOMS id type c_pe_atom
1 2      -4.865404310831
2 2      -4.865400969501
3 2      -4.865408082970
4 2      -4.865407511264
5 2      -4.865391438169
6 2      -4.865409419948
7 2      -4.865402941152
8 2      -4.865401347609
9 2      -4.865409465881
10 2      -4.865411462487
11 2      -4.865406161286
12 2      -4.865400951703
13 1     -10.915624360751
14 1     -10.915624326435
15 1     -10.915625519570
16 1     -10.915623263258
17 1     -10.915621804847
18 1     -10.915624124290
19 1     -10.915616532628
20 1     -10.915615902229
21 1     -10.915616548820
22 1     -10.915625262273
23 1     -10.915624811230
24 1     -10.915624026363
25 1     -10.915622691174
26 1     -10.915623185433
27 1     -10.915621490784
28 1     -10.915615039909
29 1     -10.915617031528
30 1     -10.915615263454
