ITEM: TIMESTEP
0
ITEM: NUMBER OF ATOMS
80
ITEM: BOX BOUNDS pp pp pp
0.0000000000000000e+00 9.3356569989999993e+00
0.0000000000000000e+00 9.3356569989999993e+00
0.0000000000000000e+00 9.3356569989999993e+00
ITEM: ATOMS id type c_pe_atom
1 2      -5.160526202841
2 2      -5.056297763017
3 2      -5.056291585965
4 2      -5.056295390694
5 2      -5.056291585965
6 2      -5.056294709253
7 2      -5.056295390694
8 2      -5.160526202841
9 2      -5.160526641181
10 2      -5.160526202841
11 2      -5.056294709253
12 2      -5.056295390694
13 2      -5.056297763017
14 2      -5.056294709253
15 2      -5.056297763017
16 2      -5.056291585965
17 2      -5.160525764519
18 2      -5.056292259017
19 2      -5.056297689929
20 2      -5.056294631404
21 2      -5.056297689929
22 2      -5.056294566708
23 2      -5.056294631404
24 2      -5.160525764519
25 2      -5.160525326220
26 2      -5.160525764519
27 2      -5.056294566708
28 2      -5.056294631404
29 2      -5.056292259017
30 2      -5.056294566708
31 2      -5.056292259017
32 2      -5.056297689929
33 1     -10.768378921415
34 1     -10.768362186033
35 1     -10.768380739816
36 1     -10.768373008272
37 1     -10.768383342921
38 1     -10.768387832250
39 1     -10.768380739816
40 1     -10.768383342921
41 1     -10.768387832250
42 1     -10.768365157431
43 1     -10.768380739816
44 1     -10.768378921415
45 1     -10.768369671850
46 1     -10.768383342921
47 1     -10.768362186033
48 1     -10.768373008272
49 1     -10.768365157431
50 1     -10.768369671850
51 1     -10.768365157431
52 1     -10.768362186033
53 1     -10.768378921415
54 1     -10.768369671850
55 1     -10.768373008272
56 1     -10.768387832250
57 1     -10.768377739678
58 1     -10.768362105185
59 1     -10.768378954981
60 1     -10.768373655330
61 1     -10.768382658959
62 1     -10.768391200673
63 1     -10.768378954981
64 1     -10.768382658959
65 1     -10.768391200673
66 1     -10.768372165144
67 1     -10.768378954981
68 1     -10.768377739678
69 1     -10.768373958027
70 1     -10.768382658959
71 1     -10.768362105185
72 1     -10.768373655330
73 1     -10.768372165144
74 1     -10.768373958027
75 1     -10.768372165144
76 1     -10.768362105185
77 1     -10.768377739678
78 1     -10.768373958027
79 1     -10.768373655330
80 1     -10.768391200673
