ITEM: TIMESTEP
0
ITEM: NUMBER OF ATOMS
30
ITEM: BOX BOUNDS xy xz yz pp pp pp
-2.5065392129999999e+00 5.0130784459999997e+00 -2.5065392129999999e+00
0.0000000000000000e+00 4.3414536989999997e+00 0.0000000000000000e+00
0.0000000000000000e+00 1.3495566058000000e+01 0.0000000000000000e+00
ITEM: ATOMS id type c_pe_atom
1 2      -3.149339228279
2 2      -3.149301530957
3 2      -3.149415327703
4 2      -3.149473602352
5 2      -3.149263585287
6 2      -3.149443003636
7 2      -3.149222866426
8 2      -3.149345417139
9 2      -3.149438765486
10 2      -3.149390141850
11 2      -3.149498479242
12 2      -3.149341344819
13 1      -7.790820483738
14 1      -7.790922760271
15 1      -7.790941379031
16 1      -7.790960869849
17 1      -7.790970787821
18 1      -7.790984036257
19 1      -7.791001477036
20 1      -7.790982006967
21 1      -7.791008230523
22 1      -7.790962429068
23 1      -7.790979047739
24 1      -7.790923648364
25 1      -7.790911118140
26 1      -7.790926526440
27 1      -7.790888627935
28 1      -7.790943439286
29 1      -7.790870298522
30 1      -7.790855489314
