ITEM: TIMESTEP
0
ITEM: NUMBER OF ATOMS
30
ITEM: BOX BOUNDS xy xz yz pp pp pp
-2.5065392129999999e+00 5.0130784459999997e+00 -2.5065392129999999e+00
0.0000000000000000e+00 4.3414536989999997e+00 0.0000000000000000e+00
0.0000000000000000e+00 1.3495566058000000e+01 0.0000000000000000e+00
ITEM: ATOMS id type v_vir_xx v_vir_yy v_vir_zz v_vir_xy v_vir_xz v_vir_yz
1 2      -4.586134489187      -4.586087154321      -3.829291939272      -0.000003431851      -0.000018844950       0.000005938205
2 2      -4.586159892671      -4.586119650435      -3.829377296589      -0.000025021612       0.000011830139      -0.000001004485
3 2      -4.586116458283      -4.586024517727      -3.829283152200      -0.000005427839      -0.000027585737       0.000009644571
4 2      -4.586077251447      -4.586118910904      -3.829238193076      -0.000022235618      -0.000019206350      -0.000008321955
5 2      -4.586222389013      -4.586176599563      -3.829509430093      -0.000009490751       0.000001214144      -0.000002458300
6 2      -4.586062882947      -4.586096063533      -3.829224504950       0.000014440925      -0.000018486783       0.000002446733
7 2      -4.586184458632      -4.586199069923      -3.829474926633      -0.000000562252       0.000003914410       0.000001250720
8 2      -4.586117345091      -4.586134675838      -3.829346773793       0.000014633878       0.000010833120       0.000014775864
9 2      -4.586080250070      -4.586104684729      -3.829246167087      -0.000019183793       0.000001223033      -0.000001343102
10 2      -4.586117324287      -4.586040945433      -3.829364083289       0.000024275718       0.000011622800       0.000018816107
11 2      -4.586066855688      -4.586065123433      -3.829211413253      -0.000001119765      -0.000005664569      -0.000003479825
12 2      -4.586195866283      -4.586115626163      -3.829350354974      -0.000006912092       0.000015901111       0.000001138488
13 1       1.895069260706       2.732605342478       1.934478494099      -0.725317845235       0.434375572704       0.250787783280
14 1       3.151403391171       1.476328902820       1.934475896663      -0.000004840484       0.000008831083      -0.501604886244
15 1       1.895119243564       2.732646950073       1.934478746607       0.725328271847      -0.434391181116       0.250813686457
16 1       1.895032239010       2.732575324918       1.934479840480      -0.725328585330       0.434368283434       0.250796324508
17 1       1.895030127987       2.732588891152       1.934474891353       0.725334635320      -0.434366532072       0.250798895183
18 1       3.151391202152       1.476255274274       1.934486949124       0.000001846814       0.000006480427      -0.501593226888
19 1       1.895045627401       2.732611401753       1.934464959469      -0.725319831665       0.434367162363       0.250790743173
20 1       3.151367586327       1.476275709646       1.934483816772      -0.000022191932       0.000002874298      -0.501574324623
21 1       1.895069998020       2.732570538607       1.934460651432       0.725338571148      -0.434369104883       0.250781447586
22 1       1.895027523739       2.732666065424       1.934492386386      -0.725291427737       0.434376657563       0.250813612050
23 1       1.895148603379       2.732575837956       1.934480191377       0.725377202087      -0.434395732278       0.250760796665
24 1       3.151360171725       1.476312275601       1.934469518618      -0.000065924166       0.000022398125      -0.501570842076
25 1       1.895143425414       2.732594916308       1.934451059703      -0.725337217198       0.434384780673       0.250780103646
26 1       3.151396642443       1.476350611429       1.934465256674       0.000049777612      -0.000021312453      -0.501603846990
27 1       1.895058879706       2.732667126498       1.934474161712       0.725306927337      -0.434367335020       0.250818738987
28 1       1.895079991229       2.732638810281       1.934488285386      -0.725338457437       0.434383064686       0.250803493971
29 1       1.895063254694       2.732611187964       1.934489755221       0.725324760141      -0.434374532891       0.250786058426
30 1       3.151350386060       1.476299170259       1.934482616476       0.000014214722      -0.000014641271      -0.501578074413
