30
Config_type=bulk_alpha_phase Weight=1.0 Lattice="5.013078446 0.000000000 0.000000000 -2.506539223 4.341453699 0.000000000 0.000000000 0.000000000 13.495566058" Energy=-254.94639860 Virial="12.36007 -0.00001 0.00002 -0.00001 12.35992 -0.00003 0.00002 -0.00003 11.01511" pbc="T T T" Properties=species:S:1:pos:R:3:forces:R:3
Ga	      0.00000      0.00000      1.94524         0.000036     -0.000009     -0.018235
Ga	     -0.00000      2.89430      0.30402         0.000028      0.000033      0.018293
Ga	      2.50654      1.44715      2.55328        -0.000046      0.000035      0.018172
Ga	     -0.00000      2.89430      4.19451        -0.000027      0.000064     -0.018268
Ga	      2.50654      1.44715      6.44376        -0.000039      0.000017     -0.018138
Ga	      0.00000      0.00000      4.80254        -0.000030      0.000011      0.018264
Ga	     -0.00000      2.89430      7.05181        -0.000017      0.000029      0.018124
Ga	      0.00000      0.00000      8.69302        -0.000013     -0.000019     -0.018189
Ga	     -0.00000      2.89430     10.94229        -0.000001      0.000062     -0.018263
Ga	      2.50654      1.44715      9.30106        -0.000010      0.000052      0.018165
Ga	      0.00000      0.00000     11.55032        -0.000036     -0.000009      0.018252
Ga	      2.50654      1.44715     13.19154        -0.000042     -0.000000     -0.018034
O	      4.25358      1.31549      3.37389        -0.007924      0.013857      0.000093
O	      1.51899      0.00000      3.37389         0.016049     -0.000057      0.000097
O	      1.74704      3.02597      3.37389        -0.008031     -0.013887      0.000068
O	      3.26604      0.13166      1.12463         0.007943     -0.013822     -0.000025
O	      3.26604      2.76264      1.12463         0.007967      0.013812      0.000003
O	      0.98755      1.44715      1.12463        -0.016039      0.000014     -0.000006
O	      1.74704      2.76264      7.87241        -0.007919      0.013804      0.000112
O	      4.02553      1.44715      7.87241         0.015980     -0.000038      0.000095
O	      1.74704      0.13166      7.87241        -0.007989     -0.013752      0.000085
O	      0.75950      1.57882      5.62316         0.007848     -0.013933     -0.000158
O	      0.75949      4.20979      5.62316         0.008119      0.013789     -0.000166
O	     -1.51900      2.89430      5.62316        -0.015895      0.000082     -0.000148
O	     -0.75950      4.20979     12.37094        -0.008015      0.013836     -0.000093
O	      1.51899      2.89430     12.37094         0.016043      0.000100     -0.000127
O	     -0.75950      1.57882     12.37094        -0.007904     -0.013982     -0.000149
O	     -1.74704      3.02597     10.12167         0.007945     -0.013909      0.000040
O	      0.75950      1.31549     10.12167         0.007933      0.013818      0.000060
O	      3.49408      0.00000     10.12167        -0.015914      0.000001      0.000077
