ITEM: TIMESTEP
0
ITEM: NUMBER OF ATOMS
20
ITEM: BOX BOUNDS xy xz yz pp pp pp
-1.4013845637169999e+00 1.2560130690333001e+01 0.0000000000000000e+00
0.0000000000000000e+00 3.1104067010000001e+00 -1.4013845637169999e+00
0.0000000000000000e+00 5.7583480333599999e+00 0.0000000000000000e+00
ITEM: ATOMS id type c_pe_atom
1 2      -6.458512991070
2 2      -6.458466605035
3 2      -9.573290774547
4 2      -9.573268195560
5 2      -6.458534682749
6 2      -6.458515089039
7 2      -9.573236075277
8 2      -9.573290650685
9 1      -3.530544948830
10 1      -3.530532914223
11 1      -6.798216155877
12 1      -6.798310246516
13 1      -3.473254194708
14 1      -3.473211343796
15 1      -3.530532966538
16 1      -3.530610433834
17 1      -6.798260354423
18 1      -6.798190498926
19 1      -3.473228170035
20 1      -3.473242760355
