ITEM: TIMESTEP
0
ITEM: NUMBER OF ATOMS
20
ITEM: BOX BOUNDS xy xz yz pp pp pp
-1.3958235136890000e+00 1.2510288901369000e+01 0.0000000000000000e+00
0.0000000000000000e+00 3.0980638169999999e+00 -1.3958235136890000e+00
0.0000000000000000e+00 5.7354974455510002e+00 0.0000000000000000e+00
ITEM: ATOMS id type c_pe_atom
1 2      -5.064241216797
2 2      -5.064236925780
3 2      -4.570843782482
4 2      -4.570845259825
5 2      -5.064236925780
6 2      -5.064241216796
7 2      -4.570845259826
8 2      -4.570843782482
9 1     -11.098672906039
10 1     -11.098672357050
11 1     -10.914772871086
12 1     -10.914771203239
13 1     -11.005696434732
14 1     -11.005689296871
15 1     -11.098672357049
16 1     -11.098672906039
17 1     -10.914771203240
18 1     -10.914772871087
19 1     -11.005689296872
20 1     -11.005696434731
