20
Config_type=bulk_beta_phase Weight=1.0 Lattice="12.155500424 0.000000000 -2.958232215 0.000000000 3.098063817 0.000000000 0.000000000 0.000000000 5.902902187" Energy=-170.65883840 Virial="-2.53765 -0.00000 -0.10120 -0.00000 -2.75934 0.00000 -0.10120 0.00000 -2.64618" pbc="T T T" Properties=species:S:1:pos:R:3:forces:R:3
Ga	      1.92522      1.54903      1.38284         0.009903      0.000019      0.018519
Ga	      4.15253      0.00000      3.04095        -0.009900     -0.000016     -0.018617
Ga	      1.09182      0.00000      4.42463        -0.007612     -0.000029      0.012521
Ga	      4.98593      1.54903     -0.00084         0.007593      0.000033     -0.012648
Ga	      8.00297      0.00000     -0.09628         0.009903     -0.000016      0.018617
Ga	     10.23028      1.54903      1.56183        -0.009903      0.000019     -0.018520
Ga	      7.16957      1.54903      2.94551        -0.007594      0.000033      0.012648
Ga	     11.06368      0.00000     -1.47996         0.007611     -0.000030     -0.012518
O	      6.02641      0.00000      0.04693        -0.003869     -0.000036      0.003191
O	      0.05134      1.54903      4.37686         0.003863      0.000034     -0.003230
O	      2.11102      0.00000      2.81807         0.016984     -0.000010     -0.003925
O	      3.96673      1.54903      1.60571        -0.017023      0.000009      0.004017
O	      4.09432      1.54903      4.26290         0.027235      0.000017     -0.001284
O	      1.98343      0.00000      0.16088        -0.027187     -0.000019      0.001423
O	     12.10416      1.54903     -1.43219        -0.003860      0.000035      0.003230
O	      6.12909      0.00000      2.89774         0.003867     -0.000036     -0.003191
O	      8.18877      1.54903      1.33896         0.017020      0.000009     -0.004019
O	     10.04448      0.00000      0.12660        -0.016984     -0.000011      0.003924
O	     10.17207      0.00000      2.78379         0.027188     -0.000021     -0.001423
O	      8.06118      1.54903     -1.31823        -0.027237      0.000019      0.001283
