ITEM: TIMESTEP
0
ITEM: NUMBER OF ATOMS
160
ITEM: BOX BOUNDS pp pp pp
0.0000000000000000e+00 8.4793230770000001e+00
0.0000000000000000e+00 8.4793230770000001e+00
0.0000000000000000e+00 2.5437969232000000e+01
ITEM: ATOMS id type x y z fx fy fz
1 2       1.228470000000       5.263520000000      22.377150000000      -0.181744666617       0.132837205522      -0.059199675546
2 2       5.268990000000       0.857610000000      13.846470000000      -0.125675719881      -0.045037628102      -0.025183117710
3 2       7.252500000000       7.498480000000       7.481790000000      -0.157847528416       0.030556160367      -0.045508985941
4 2       7.380960000000       7.223460000000      15.967510000000      -0.002091283587       0.047194632968      -0.010947513239
5 2       5.292930000000       5.311320000000       0.994240000000       0.188562840588       0.268631852401       0.027461142938
6 2       3.069390000000       3.243890000000       7.296410000000       0.050571359114      -0.104777180461      -0.012126046816
7 2       0.966430000000       1.058830000000       1.096230000000      -0.116024262694       0.086097459007      -0.037543610974
8 2       5.236680000000       1.037820000000       5.309250000000       0.014626554435       0.189032137472       0.008269027855
9 2       3.223540000000       3.006890000000      15.857610000000      -0.030460133794      -0.012559309496       0.045325840182
10 2       5.449280000000       1.133480000000      22.188140000000      -0.087197455779       0.090509089996       0.056188539551
11 2       3.182080000000       7.346520000000      11.659870000000      -0.083805831355      -0.030313992251      -0.000990478221
12 2       7.519230000000       3.241150000000      20.062930000000       0.108219999354      -0.323673290535      -0.024552743625
13 2       1.033900000000       5.163430000000      13.654750000000      -0.022896376730       0.154691245422      -0.053558837692
14 2       7.418070000000       3.264280000000       3.244590000000      -0.200684796312      -0.269187494587      -0.036540181418
15 2       5.161430000000       5.394110000000       9.491730000000      -0.038653798019       0.156769184797       0.036716057151
16 2       7.455110000000       7.537680000000      24.403840000000      -0.059333596148      -0.196385073150       0.021462141126
17 2       3.232990000000       7.544870000000      20.173790000000      -0.058049732344      -0.044195223560       0.018481166620
18 2       0.927730000000       1.087510000000       9.648470000000       0.083408553177      -0.009284596662      -0.009747081410
19 2       3.265770000000       7.517570000000       3.144620000000       0.086136413908      -0.060010982065       0.007699285164
20 2       1.193900000000       1.042530000000      18.044350000000      -0.126248971883       0.050606071179       0.018346687809
21 2       3.986080000000       0.187590000000       8.490300000000       0.205527124026      -0.188105806349       0.001581941712
22 2       6.213040000000       6.195270000000      12.695940000000       0.048400777826      -0.036456358780      -0.040664983455
23 2       2.186740000000       2.153020000000      21.212480000000       0.058077144156      -0.021706363489       0.075122838743
24 2       6.489400000000       6.381740000000      21.175990000000       0.037808907857      -0.104777445319       0.063052135563
25 2       1.991600000000       6.487440000000       8.392220000000      -0.046996589401       0.025369729728       0.034665046181
26 2       8.423160000000       2.091750000000       6.320590000000       0.268290722791       0.174580437720      -0.261805649708
27 2       2.018960000000       2.124850000000       4.275380000000      -0.143037245213       0.247367815715       0.084219039257
28 2       0.060190000000       2.041880000000      14.810740000000       0.031625801075       0.113421375900       0.072869438217
29 2       0.161180000000       6.289020000000      19.031080000000      -0.042687332555      -0.135282030683      -0.137609250754
30 2       6.350870000000       0.054420000000       2.128250000000       0.014744538032      -0.022214460446      -0.011331983947
31 2       6.170060000000       0.072230000000      10.659810000000       0.070552797396      -0.051520685769       0.058335285996
32 2       4.219700000000       2.225720000000      19.031050000000       0.118727530715      -0.101812993600      -0.145509687520
33 2       6.492190000000       8.452870000000      19.092040000000       0.102563335580       0.086959589840      -0.080299824478
34 2       6.438100000000       2.066280000000      16.935540000000       0.011678539440      -0.000205687603       0.177024218172
35 2       0.164530000000       2.087090000000      23.377230000000      -0.095009812362       0.123000409412       0.132905149711
36 2       2.065310000000       8.268860000000      14.930590000000      -0.064663266980       0.020305192181      -0.101417465555
37 2       4.058030000000       6.109270000000      14.844330000000       0.185044943114       0.150911418171       0.108528862055
38 2       6.312920000000       4.255620000000       6.394690000000      -0.028129790281      -0.026659232965      -0.185677509606
39 2       4.267920000000       6.460730000000      23.357170000000      -0.101192227118      -0.163016908094       0.211954420398
40 2       0.098700000000       4.238160000000      16.951370000000      -0.124756556020       0.065679275032       0.261156074118
41 2       2.112960000000       4.293750000000       2.118500000000       0.001236696439      -0.025122563637       0.000845597145
42 2       4.174670000000       4.365630000000      21.144220000000       0.010426065745      -0.074148275996       0.025094984901
43 2       4.190290000000       8.287870000000      17.019030000000       0.087738572526       0.091775588007       0.141788062237
44 2       6.398320000000       4.290610000000      23.256450000000       0.046559712426      -0.053217016227       0.095678626960
45 2       8.417350000000       6.300070000000      10.569710000000       0.004278614000       0.038765991585       0.168489386940
46 2       8.465730000000       8.400520000000      12.748110000000       0.037315939607      -0.104686410279      -0.193930630124
47 2       0.017520000000       4.334960000000       0.048220000000      -0.076508894798       0.055618301835      -0.123053022278
48 2       6.288100000000       4.114390000000      14.808230000000       0.142112121748       0.028924045640      -0.054300307293
49 2       4.203730000000       4.239790000000       4.192770000000       0.089286033020      -0.043053990403       0.136390266424
50 2       2.150110000000       2.059290000000      12.650100000000      -0.185646194850       0.262582420137      -0.157630351619
51 2       2.117840000000       4.171150000000      10.618260000000      -0.204457061579      -0.215313883635       0.081743311648
52 2       0.039780000000       6.522240000000       2.222930000000       0.033012647891       0.025710770124      -0.099482733790
53 2       0.205550000000       8.438460000000      21.300480000000      -0.036328987100      -0.121538761663      -0.145042216616
54 2       4.173070000000       2.052700000000       2.012820000000      -0.043542280094       0.001404347321       0.041592587402
55 2       6.282660000000       2.072050000000      25.388990000000       0.096630369248       0.087805498286      -0.119409985212
56 2       8.465190000000       4.181250000000       8.477540000000      -0.089979192169       0.088125983309      -0.008039269516
57 2       6.154710000000       2.188670000000       8.579090000000      -0.044571719608       0.056332680554      -0.099176495843
58 2       4.073290000000       6.504750000000       6.303440000000       0.079538392934      -0.085215652933      -0.100452286893
59 2       6.416470000000       6.510010000000       4.298640000000      -0.077457183826      -0.103085235263       0.100508835175
60 2       2.208070000000       6.461860000000      25.409930000000       0.175369225830      -0.228725766333      -0.123293592676
61 2       5.221080000000       3.156620000000      11.700440000000      -0.081413082243      -0.067630850394       0.000850046927
62 2       3.217550000000       1.078980000000      24.354140000000       0.071322454028      -0.049412275922       0.002212791028
63 2       3.200480000000       5.239500000000      18.010700000000      -0.085569659566       0.057626733979       0.017204405030
64 2       1.000650000000       7.499120000000       5.297160000000      -0.005899490807       0.039034857256       0.004969542644
65 1       2.148530000000       2.162200000000       2.142180000000       0.048195494544       0.071288083415      -0.069326281448
66 1       6.234780000000       6.305230000000       6.321730000000       0.033352768482       0.035274747160       0.018803356944
67 1       4.326830000000       8.402740000000       6.511410000000      -0.013829069793       0.095794606618      -0.000050961018
68 1       4.365030000000       0.130560000000       2.139680000000       0.130866371695      -0.036024569857      -0.014874746556
69 1       8.351060000000       6.475780000000       4.163160000000       0.056356862949      -0.028436552282       0.081948705415
70 1       0.038200000000       2.237900000000       4.332960000000       0.151812365404       0.001737432998       0.180916659256
71 1       6.259280000000       4.208620000000       8.450190000000       0.268354769918      -0.075546128477       0.086072721012
72 1       1.907950000000       4.514310000000       0.256990000000       0.024005609393       0.183774180925      -0.047240477172
73 1       8.465630000000       4.409340000000       2.107850000000       0.173782137909       0.070037297583       0.007574217205
74 1       8.193760000000       4.046680000000       6.618140000000       0.008394111038      -0.170070640172      -0.040139789390
75 1       4.348020000000       2.098890000000       0.067770000000      -0.078653958827       0.013316765491      -0.031118593897
76 1       4.064550000000       6.451130000000       8.343820000000       0.013705109905       0.141413509368      -0.070495499086
77 1       2.134000000000       0.078420000000       4.224290000000       0.013994863186      -0.072847591033      -0.032196341617
78 1       6.208770000000       8.417880000000       4.137970000000       0.003238245852       0.083322321850      -0.050201111168
79 1       2.134080000000       6.505110000000       6.444180000000      -0.057997135018       0.001611019076      -0.045608539320
80 1       6.299530000000       2.141620000000       2.056450000000       0.056108776754       0.067383077372       0.071261368194
81 1       4.239250000000       4.170480000000       2.128130000000      -0.188626366354      -0.097446092193       0.014580429692
82 1       4.272800000000       4.382660000000       6.240470000000      -0.144531026449       0.020079622447       0.064013863072
83 1       8.283160000000       2.126100000000       8.474050000000      -0.065083526426       0.049242485989      -0.001719628915
84 1       0.040440000000       6.383180000000       0.082410000000       0.123110916349       0.037003299428      -0.036385452758
85 1       8.338790000000       0.065860000000       6.381080000000       0.021054969272      -0.028177749991       0.012274225175
86 1       8.339070000000       8.448440000000       2.099590000000      -0.146705691416       0.038939900175       0.020502736819
87 1       4.287630000000       6.305990000000       4.293170000000      -0.094510325312       0.088729611197       0.006764448015
88 1       4.174780000000       2.192260000000       4.165640000000      -0.070497119879      -0.052415248653       0.026131110940
89 1       6.331770000000       2.185200000000       6.425680000000      -0.026974888576      -0.070629976844      -0.004536573427
90 1       2.077310000000       6.420120000000       2.094350000000       0.004781071799      -0.058510769413       0.097654388988
91 1       2.314980000000       4.073820000000       3.978860000000      -0.020518408642      -0.212760984299       0.058986843117
92 1       6.235400000000       4.375080000000       4.328790000000       0.100151029749       0.085159546367      -0.076947292063
93 1       6.481180000000       0.160540000000       0.114130000000       0.005957840800      -0.058749891457       0.031862836290
94 1       2.076650000000       8.429630000000       8.661220000000       0.076933255065      -0.000258734466      -0.049789707682
95 1       6.401370000000       6.439540000000       2.183840000000      -0.072849711719      -0.058706966997      -0.024440320508
96 1       1.927600000000       2.221360000000       6.230680000000      -0.120566136318       0.017434332168      -0.019022208296
97 1       2.011010000000       2.191340000000      10.688990000000      -0.019247485444       0.100013353714       0.074118080339
98 1       6.283220000000       6.191220000000      14.766730000000      -0.149174700651       0.005560802358       0.040614308782
99 1       4.161040000000       8.294210000000      14.983110000000       0.030529289192      -0.135086304052       0.092828852834
100 1       4.274380000000       8.288120000000      10.459400000000      -0.110662664636       0.024591992802       0.017261410220
101 1       8.331110000000       6.365450000000      12.616120000000       0.033100068451      -0.141358109059       0.048692903044
102 1       0.193520000000       1.795650000000      12.944820000000       0.215013422622      -0.008646335164      -0.007139777999
103 1       6.648630000000       3.931690000000      16.689090000000       0.087679737213      -0.055068241956       0.047189051955
104 1       2.051110000000       4.362700000000       8.481940000000      -0.048231178996       0.058462883036      -0.005357718508
105 1       0.148070000000       4.424270000000      10.337950000000       0.181408632841      -0.006830935616       0.057607244240
106 1       0.014160000000       4.066110000000      14.845180000000      -0.224230653625      -0.145998878460      -0.072125418499
107 1       4.208340000000       2.102250000000       8.296740000000       0.005599035870      -0.099270244538       0.055200047760
108 1       4.144490000000       6.372070000000      16.829300000000      -0.055297681181      -0.099368126422      -0.100643703291
109 1       2.056860000000       8.439350000000      12.773270000000       0.043316206251       0.011533267953       0.027464858634
110 1       6.411200000000       8.318330000000      12.670030000000       0.002432210774       0.098941587838       0.035669009412
111 1       2.134740000000       6.337650000000      14.654820000000       0.100874086779      -0.000326309152       0.055164143010
112 1       6.168430000000       2.016100000000      10.519900000000      -0.002907039896       0.039594773226       0.062941679888
113 1       4.157280000000       4.288220000000      10.607770000000       0.044747574984       0.007686559681      -0.032923311169
114 1       4.331950000000       4.195500000000      14.952650000000       0.006009196684       0.021909566389      -0.000589472974
115 1       0.034100000000       2.054380000000      16.851960000000       0.055581959410       0.072694706163       0.061867647785
116 1       8.442880000000       6.383060000000       8.509400000000       0.071255476654      -0.260869166422      -0.070635203444
117 1       0.048140000000       8.351780000000      14.843280000000       0.161934458213       0.121083146891       0.019183675969
118 1       8.290330000000       8.348620000000      10.706060000000      -0.013207038064       0.151994460607      -0.041266042139
119 1       4.314940000000       6.447970000000      12.872220000000      -0.107279288554      -0.003494850933       0.018778784890
120 1       4.207840000000       1.971460000000      12.771860000000       0.073904659163       0.020917620098       0.005869361655
121 1       6.452990000000       1.983640000000      14.869690000000       0.031537002193       0.132259873315      -0.052269194736
122 1       2.019860000000       6.278050000000      10.534140000000       0.068391888846       0.001278524743       0.027742776905
123 1       2.048380000000       4.045270000000      12.577120000000      -0.022941821717      -0.129298566046      -0.000487993124
124 1       6.254930000000       4.258210000000      12.847620000000       0.019541195973      -0.076373945115      -0.062221895601
125 1       6.191900000000       0.111620000000       8.619110000000      -0.125182694181      -0.029938984765       0.072688450709
126 1       2.261640000000       0.067750000000      16.858870000000      -0.039913650839      -0.021733814544      -0.015320834532
127 1       6.370010000000       6.392590000000      10.649200000000      -0.018288887385      -0.033337748663      -0.050742173239
128 1       2.126170000000       1.906900000000      14.759320000000      -0.026357649920      -0.042055986532      -0.045946698625
129 1       2.304570000000       2.011060000000      19.198570000000      -0.042420084106      -0.028753026235      -0.007995219459
130 1       6.413430000000       6.392220000000      23.221620000000      -0.047007113724       0.083544638363       0.094951658930
131 1       4.376120000000       0.041410000000      23.270050000000      -0.002821483487       0.069083559530       0.028871271397
132 1       4.427110000000       0.064520000000      19.009070000000      -0.093905219360      -0.020662312546      -0.036846277211
133 1       0.117760000000       6.426500000000      21.235120000000       0.087619694860       0.150008144173      -0.050801531512
134 1       0.118280000000       2.101900000000      21.259970000000      -0.042202671758       0.028219581503      -0.004283864813
135 1       6.473150000000       4.206240000000      25.340910000000      -0.079710819857      -0.085026697543       0.070943330469
136 1       2.133130000000       4.090540000000      16.942340000000       0.095665010659      -0.021171981701       0.038679389019
137 1       0.040210000000       4.311030000000      18.933830000000      -0.011429283233       0.146274959091      -0.108277418987
138 1       8.440270000000       4.192470000000      23.427030000000       0.135644268724      -0.004077157032      -0.012390847669
139 1       4.397680000000       1.971320000000      17.036640000000      -0.097965831117       0.041901386270       0.014138690261
140 1       4.198000000000       6.338120000000      25.334500000000      -0.200825613794      -0.006112909883      -0.104674974845
141 1       2.115270000000       0.145260000000      21.176480000000       0.007195370358       0.091205007975       0.030896333343
142 1       6.559280000000       0.021650000000      21.124940000000       0.093821571811      -0.127980659359      -0.145041616307
143 1       2.292470000000       6.360540000000      23.453170000000       0.040610406680      -0.012914528750      -0.050419139170
144 1       6.375410000000       2.022610000000      18.992580000000      -0.091070706054       0.191218028993       0.090142366631
145 1       4.233390000000       4.164290000000      19.195330000000       0.021686097329       0.052854881306      -0.094600620695
146 1       4.538900000000       4.532110000000      23.028780000000       0.001952451663       0.134787070533       0.060669851703
147 1       8.416150000000       2.271290000000      25.388720000000       0.102188243686      -0.105083909685      -0.014077855167
148 1       0.002820000000       6.202110000000      17.053240000000       0.013873229730      -0.023039532794       0.108017956752
149 1       8.385280000000       0.167710000000      23.217110000000       0.005095672959      -0.043285835649      -0.004498448024
150 1       0.059620000000       8.444700000000      19.155940000000       0.017489650508      -0.117810313827      -0.009885579398
151 1       4.403400000000       6.431540000000      21.214100000000      -0.016751126627       0.012744719430      -0.055267022237
152 1       4.297530000000       2.227320000000      21.093890000000       0.056712738524       0.065046290645       0.053752681507
153 1       6.484870000000       2.272730000000      23.368730000000      -0.002358576199       0.013115639931      -0.035220405847
154 1       2.177510000000       6.392520000000      19.112310000000       0.001353897382       0.016326814926      -0.029302093478
155 1       2.252020000000       4.132590000000      21.309200000000       0.095791245349      -0.143690883344      -0.009212840701
156 1       6.466050000000       4.352980000000      21.214010000000      -0.297550232333       0.132591455676      -0.022450370752
157 1       6.321410000000       0.004550000000      17.036330000000      -0.047810848160      -0.133217753090      -0.061739027935
158 1       2.099050000000       0.017630000000       0.014010000000      -0.034227646452       0.070018433969       0.029556676471
159 1       6.707110000000       6.570790000000      19.308600000000       0.127513224597       0.011161517346       0.007561118066
160 1       2.077580000000       2.066160000000      23.219910000000       0.030263601188      -0.027595217299      -0.034370669813
