160
Config_type=bulk_gamma_phase Weight=1.0 Lattice="8.479323077 0.000000000 0.000000000 0.000000000 8.479323077 0.000000000 0.000000000 0.000000000 25.437969232" Energy=-1359.69756520 Virial="-59.98549 -0.01279 -19.72132 -0.01279 -60.78515 -2.42740 -19.72132 -2.42740 -57.97401" pbc="T T T" Properties=species:S:1:pos:R:3:forces:R:3
Ga	      1.22847      5.26352     22.37715         0.010746      0.011409      0.000456
Ga	      5.26899      0.85761     13.84647        -0.001313     -0.004006     -0.023614
Ga	      7.25250      7.49848      7.48179         0.000415      0.002917     -0.011402
Ga	      7.38096      7.22346     15.96751         0.004593     -0.001893      0.006533
Ga	      5.29293      5.31132      0.99424         0.000060     -0.008395     -0.007552
Ga	      3.06939      3.24389      7.29641         0.006525      0.004525      0.010542
Ga	      0.96643      1.05883      1.09623        -0.003947     -0.001258     -0.013600
Ga	      5.23668      1.03782      5.30925         0.001047      0.002039     -0.001748
Ga	      3.22354      3.00689     15.85761        -0.003797      0.015618      0.010488
Ga	      5.44928      1.13348     22.18814        -0.007142      0.002276      0.013770
Ga	      3.18208      7.34652     11.65987         0.008448     -0.009489      0.005113
Ga	      7.51923      3.24115     20.06293        -0.010875     -0.002480     -0.011340
Ga	      1.03390      5.16343     13.65475        -0.007195     -0.008039      0.000153
Ga	      7.41807      3.26428      3.24459        -0.001910      0.017078      0.017040
Ga	      5.16143      5.39411      9.49173         0.003638      0.007035      0.006664
Ga	      7.45511      7.53768     24.40384        -0.007274      0.019797      0.012458
Ga	      3.23299      7.54487     20.17379        -0.004209     -0.003912      0.012374
Ga	      0.92773      1.08751      9.64847         0.008338      0.009084     -0.012783
Ga	      3.26577      7.51757      3.14462        -0.005543      0.010899     -0.001534
Ga	      1.19390      1.04253     18.04435         0.040874     -0.008729     -0.013208
Ga	      3.98608      0.18759      8.49030         0.011730     -0.021581     -0.013418
Ga	      6.21304      6.19527     12.69594        -0.034141     -0.016398      0.019810
Ga	      2.18674      2.15302     21.21248        -0.004286     -0.027459     -0.001170
Ga	      6.48940      6.38174     21.17599         0.025171      0.002035      0.019948
Ga	      1.99160      6.48744      8.39222        -0.007190      0.007256     -0.000178
Ga	      8.42316      2.09175      6.32059         0.008544      0.015330     -0.001573
Ga	      2.01896      2.12485      4.27538         0.010414      0.008791     -0.017439
Ga	      0.06019      2.04188     14.81074        -0.005508     -0.008341      0.006159
Ga	      0.16118      6.28902     19.03108        -0.009041     -0.010542     -0.005503
Ga	      6.35087      0.05442      2.12825        -0.000152     -0.016870      0.004603
Ga	      6.17006      0.07223     10.65981         0.013092     -0.007606     -0.006004
Ga	      4.21970      2.22572     19.03105        -0.003722     -0.006585      0.001025
Ga	      6.49219      8.45287     19.09204         0.034082      0.019772      0.000120
Ga	      6.43810      2.06628     16.93554        -0.005508      0.003021     -0.011223
Ga	      0.16453      2.08709     23.37723         0.004785      0.015753     -0.009252
Ga	      2.06531      8.26886     14.93059         0.009343      0.005075      0.000570
Ga	      4.05803      6.10927     14.84433         0.018837     -0.001483     -0.004778
Ga	      6.31292      4.25562      6.39469         0.023800     -0.002710     -0.015486
Ga	      4.26792      6.46073     23.35717        -0.002518     -0.005418      0.001497
Ga	      0.09870      4.23816     16.95137        -0.022567      0.000408      0.022733
Ga	      2.11296      4.29375      2.11850         0.001002     -0.015550     -0.001609
Ga	      4.17467      4.36563     21.14422         0.007904      0.004869     -0.005084
Ga	      4.19029      8.28787     17.01903        -0.002063      0.008073     -0.007543
Ga	      6.39832      4.29061     23.25645         0.002958      0.006670     -0.010975
Ga	      8.41735      6.30007     10.56971         0.001870      0.010204     -0.011833
Ga	      8.46573      8.40052     12.74811         0.011752     -0.001550     -0.001852
Ga	      0.01752      4.33496      0.04822        -0.008601      0.013689     -0.004582
Ga	      6.28810      4.11439     14.80823         0.000393     -0.015463      0.000533
Ga	      4.20373      4.23979      4.19277         0.031954     -0.000712      0.003509
Ga	      2.15011      2.05929     12.65010        -0.008657      0.009276      0.005429
Ga	      2.11784      4.17115     10.61826        -0.015298      0.003197     -0.022955
Ga	      0.03978      6.52224      2.22293        -0.000030      0.008867     -0.008517
Ga	      0.20555      8.43846     21.30048         0.008133      0.006628     -0.005597
Ga	      4.17307      2.05270      2.01282         0.014634      0.006128     -0.019565
Ga	      6.28266      2.07205     25.38899         0.010890     -0.002730      0.000777
Ga	      8.46519      4.18125      8.47754        -0.007752      0.015175      0.000658
Ga	      6.15471      2.18867      8.57909        -0.006385     -0.007320      0.000679
Ga	      4.07329      6.50475      6.30344         0.000065      0.016376      0.014586
Ga	      6.41647      6.51001      4.29864         0.000533     -0.014331     -0.007569
Ga	      2.20807      6.46186     25.40993        -0.003614      0.000635     -0.006034
Ga	      5.22108      3.15662     11.70044        -0.004819     -0.014366      0.002372
Ga	      3.21755      1.07898     24.35414        -0.012756     -0.020480      0.017564
Ga	      3.20048      5.23950     18.01070        -0.025054      0.009149      0.001530
Ga	      1.00065      7.49912      5.29716        -0.008136      0.002526     -0.003645
O	      2.14853      2.16220      2.14218         0.001653     -0.000585     -0.000628
O	      6.23478      6.30523      6.32173        -0.000687     -0.003370     -0.010877
O	      4.32683      8.40274      6.51141         0.017869     -0.010081     -0.002751
O	      4.36503      0.13056      2.13968        -0.008274     -0.004511     -0.002018
O	      8.35106      6.47578      4.16316        -0.002401      0.008501      0.004924
O	      0.03820      2.23790      4.33296        -0.000084     -0.001269     -0.006922
O	      6.25928      4.20862      8.45019        -0.004234     -0.005236      0.015042
O	      1.90795      4.51431      0.25699         0.002190     -0.014019      0.004119
O	      8.46563      4.40934      2.10785        -0.008529      0.001548     -0.003503
O	      8.19376      4.04668      6.61814        -0.003463      0.008631      0.001602
O	      4.34802      2.09889      0.06777        -0.002364     -0.012229      0.002916
O	      4.06455      6.45113      8.34382         0.006027     -0.003663     -0.003420
O	      2.13400      0.07842      4.22429        -0.001867      0.001111      0.008305
O	      6.20877      8.41788      4.13797        -0.000464     -0.004363      0.003671
O	      2.13408      6.50511      6.44418         0.001462      0.019052     -0.002641
O	      6.29953      2.14162      2.05645         0.001363     -0.009967      0.002653
O	      4.23925      4.17048      2.12813        -0.002916     -0.010316      0.003192
O	      4.27280      4.38266      6.24047        -0.006317     -0.008983     -0.002539
O	      8.28316      2.12610      8.47405        -0.013892      0.007442      0.000108
O	      0.04044      6.38318      0.08241        -0.000060     -0.007458     -0.003859
O	      8.33879      0.06586      6.38108         0.002828      0.006260     -0.002025
O	      8.33907      8.44844      2.09959         0.005111      0.003542     -0.003711
O	      4.28763      6.30599      4.29317        -0.000964     -0.004245     -0.004403
O	      4.17478      2.19226      4.16564         0.000146      0.003401     -0.003322
O	      6.33177      2.18520      6.42568         0.007479     -0.003587     -0.006744
O	      2.07731      6.42012      2.09435         0.001452      0.002460      0.004780
O	      2.31498      4.07382      3.97886        -0.003460     -0.004456     -0.002796
O	      6.23540      4.37508      4.32879        -0.000080     -0.004664      0.000909
O	      6.48118      0.16054      0.11413        -0.000494      0.004486     -0.005410
O	      2.07665      8.42963      8.66122         0.003553     -0.002333      0.020965
O	      6.40137      6.43954      2.18384        -0.006818      0.006612      0.002155
O	      1.92760      2.22136      6.23068        -0.002458      0.005141      0.004524
O	      2.01101      2.19134     10.68899        -0.008050      0.010770     -0.004388
O	      6.28322      6.19122     14.76673         0.004516     -0.004419      0.007630
O	      4.16104      8.29421     14.98311         0.007292      0.012182      0.005266
O	      4.27438      8.28812     10.45940         0.007098     -0.012811      0.008798
O	      8.33111      6.36545     12.61612         0.001156     -0.005440      0.004950
O	      0.19352      1.79565     12.94482        -0.010847     -0.005750      0.020064
O	      6.64863      3.93169     16.68909        -0.002623     -0.012574     -0.005207
O	      2.05111      4.36270      8.48194        -0.006275     -0.002063     -0.003815
O	      0.14807      4.42427     10.33795        -0.002925      0.003244     -0.000700
O	      0.01416      4.06611     14.84518         0.009019     -0.002007      0.004606
O	      4.20834      2.10225      8.29674        -0.014326     -0.009870     -0.013571
O	      4.14449      6.37207     16.82930        -0.016476      0.007709      0.011909
O	      2.05686      8.43935     12.77327        -0.002573     -0.000025     -0.002322
O	      6.41120      8.31833     12.67003         0.009819     -0.000471     -0.006102
O	      2.13474      6.33765     14.65482         0.016426     -0.018380     -0.011509
O	      6.16843      2.01610     10.51990        -0.017422     -0.001359      0.004261
O	      4.15728      4.28822     10.60777        -0.007352      0.003445      0.005344
O	      4.33195      4.19550     14.95265        -0.000987      0.001430      0.017022
O	      0.03410      2.05438     16.85196        -0.004413     -0.004713      0.006641
O	      8.44288      6.38306      8.50940         0.008610      0.011396     -0.012733
O	      0.04814      8.35178     14.84328         0.014027     -0.003037      0.005955
O	      8.29033      8.34862     10.70606         0.008181      0.004584      0.004047
O	      4.31494      6.44797     12.87222         0.004961      0.011914      0.004141
O	      4.20784      1.97146     12.77186        -0.004677     -0.001165      0.002767
O	      6.45299      1.98364     14.86969        -0.000238     -0.001470     -0.001962
O	      2.01986      6.27805     10.53414         0.006819     -0.005345      0.002270
O	      2.04838      4.04527     12.57712        -0.007297      0.011410     -0.003484
O	      6.25493      4.25821     12.84762        -0.016971     -0.003023     -0.006151
O	      6.19190      0.11162      8.61911         0.003444     -0.012890      0.005080
O	      2.26164      0.06775     16.85887         0.003839      0.013006      0.007412
O	      6.37001      6.39259     10.64920         0.003274     -0.009252      0.009738
O	      2.12617      1.90690     14.75932         0.002556      0.015099      0.000834
O	      2.30457      2.01106     19.19857         0.000351     -0.003789      0.001876
O	      6.41343      6.39222     23.22162         0.006607      0.004548      0.001744
O	      4.37612      0.04141     23.27005        -0.003436     -0.002938      0.006702
O	      4.42711      0.06452     19.00907        -0.008291      0.003871      0.002258
O	      0.11776      6.42650     21.23512        -0.000804      0.003684      0.001555
O	      0.11828      2.10190     21.25997         0.001286      0.008654     -0.001959
O	      6.47315      4.20624     25.34091        -0.004798      0.002816      0.005921
O	      2.13313      4.09054     16.94234        -0.001996      0.005737     -0.005794
O	      0.04021      4.31103     18.93383         0.000975     -0.004697     -0.001710
O	      8.44027      4.19247     23.42703         0.000868     -0.000441      0.001533
O	      4.39768      1.97132     17.03664         0.003235     -0.005886      0.000262
O	      4.19800      6.33812     25.33450        -0.001203      0.003383      0.001593
O	      2.11527      0.14526     21.17648        -0.010977     -0.020844     -0.002041
O	      6.55928      0.02165     21.12494        -0.007193      0.005477     -0.004781
O	      2.29247      6.36054     23.45317        -0.001942      0.002704     -0.016381
O	      6.37541      2.02261     18.99258         0.004418      0.011423     -0.004562
O	      4.23339      4.16429     19.19533        -0.008894      0.002791     -0.015967
O	      4.53890      4.53211     23.02878         0.010595     -0.004132      0.000594
O	      8.41615      2.27129     25.38872         0.005462      0.006488     -0.004519
O	      0.00282      6.20211     17.05324        -0.009708     -0.008046      0.001202
O	      8.38528      0.16771     23.21711        -0.013402     -0.001260     -0.006130
O	      0.05962      8.44470     19.15594        -0.001820      0.003999     -0.005863
O	      4.40340      6.43154     21.21410         0.001324      0.007019     -0.004681
O	      4.29753      2.22732     21.09389        -0.003010     -0.000684      0.004933
O	      6.48487      2.27273     23.36873        -0.003185      0.003868      0.002820
O	      2.17751      6.39252     19.11231        -0.005666      0.001389      0.004886
O	      2.25202      4.13259     21.30920         0.010516     -0.001673      0.010960
O	      6.46605      4.35298     21.21401        -0.000625      0.007623     -0.009786
O	      6.32141      0.00455     17.03633         0.008132     -0.005750      0.005631
O	      2.09905      0.01763      0.01401        -0.011897      0.005694      0.007827
O	      6.70711      6.57079     19.30860        -0.001517      0.001415      0.014767
O	      2.07758      2.06616     23.21991        -0.007866     -0.021301      0.008498
