ITEM: TIMESTEP
0
ITEM: NUMBER OF ATOMS
20
ITEM: BOX BOUNDS xy xz yz pp pp pp
-1.3707987893300000e+00 1.2286000853698001e+01 0.0000000000000000e+00
0.0000000000000000e+00 3.0425208399999999e+00 -1.3707987893300000e+00
0.0000000000000000e+00 5.6326698027979996e+00 0.0000000000000000e+00
ITEM: ATOMS id type c_pe_atom
1 2      -4.743735568850
2 2      -4.743726711730
3 2      -4.206707647575
4 2      -4.206697665749
5 2      -4.743736312407
6 2      -4.743734447044
7 2      -4.206694096560
8 2      -4.206699144025
9 1     -11.317594200814
10 1     -11.317601837824
11 1     -11.098286740746
12 1     -11.098288473237
13 1     -11.238724701369
14 1     -11.238718142178
15 1     -11.317594021230
16 1     -11.317594374229
17 1     -11.098285502748
18 1     -11.098289080920
19 1     -11.238720727790
20 1     -11.238717757156
