ITEM: TIMESTEP
0
ITEM: NUMBER OF ATOMS
30
ITEM: BOX BOUNDS xy xz yz pp pp pp
-2.5521126629999999e+00 5.1042253270000000e+00 -2.5521126629999999e+00
0.0000000000000000e+00 4.4203892209999998e+00 0.0000000000000000e+00
0.0000000000000000e+00 1.3740939987000001e+01 0.0000000000000000e+00
ITEM: ATOMS id type c_pe_atom
1 2      -5.165231356074
2 2      -5.165029945782
3 2      -5.165230285821
4 2      -5.165329978170
5 2      -5.165041823510
6 2      -5.165339283411
7 2      -5.165005718635
8 2      -5.165255773238
9 2      -5.165336705106
10 2      -5.165236941338
11 2      -5.165345987365
12 2      -5.165048306928
13 1      -6.451427920338
14 1      -6.451453712603
15 1      -6.451451369026
16 1      -6.451635164915
17 1      -6.451668720497
18 1      -6.451639572532
19 1      -6.451650755009
20 1      -6.451629352782
21 1      -6.451663141824
22 1      -6.451517632678
23 1      -6.451569783188
24 1      -6.451622064232
25 1      -6.451542817925
26 1      -6.451581141350
27 1      -6.451578219508
28 1      -6.451461914396
29 1      -6.451429241383
30 1      -6.451434339971
