30
Config_type=bulk_alpha_phase Weight=1.0 Lattice="5.104225327 0.000000000 0.000000000 -2.552112663 4.420389221 0.000000000 0.000000000 0.000000000 13.740939987" Energy=-255.06315160 Virial="-9.06408 -0.00005 0.00002 -0.00005 -9.06414 0.00003 0.00002 0.00003 -7.91500" pbc="T T T" Properties=species:S:1:pos:R:3:forces:R:3
Ga	      0.00000      0.00000      1.97988        -0.000005     -0.000019     -0.004839
Ga	      0.00000      2.94693      0.31028        -0.000013     -0.000077      0.004718
Ga	      2.55211      1.47346      2.60043         0.000038      0.000044      0.004684
Ga	      0.00000      2.94693      4.27004        -0.000004     -0.000066     -0.004760
Ga	      2.55211      1.47346      6.56019         0.000060      0.000093     -0.004680
Ga	      0.00000      0.00000      4.89059        -0.000013      0.000026      0.004810
Ga	      0.00000      2.94693      7.18075         0.000014     -0.000084      0.004734
Ga	      0.00000      0.00000      8.85035         0.000015     -0.000013     -0.004822
Ga	      0.00000      2.94693     11.14051        -0.000028     -0.000068     -0.004722
Ga	      2.55211      1.47346      9.47090         0.000050      0.000058      0.004673
Ga	      0.00000      0.00000     11.76106        -0.000030      0.000025      0.004769
Ga	      2.55211      1.47346     13.43066         0.000025      0.000076     -0.004700
O	      4.33087      1.33948      3.43523        -0.002452      0.004288      0.000084
O	      1.54669      0.00000      3.43523         0.005022      0.000010      0.000050
O	      1.77877      3.08091      3.43523        -0.002579     -0.004277      0.000079
O	      3.32546      0.13399      1.14507         0.002517     -0.004327      0.000133
O	      3.32546      2.81294      1.14507         0.002426      0.004345      0.000122
O	      1.00542      1.47346      1.14507        -0.004988      0.000003      0.000104
O	      1.77877      2.81294      8.01554        -0.002478      0.004335      0.000098
O	      4.09881      1.47346      8.01554         0.004944      0.000002      0.000096
O	      1.77877      0.13399      8.01554        -0.002581     -0.004311      0.000145
O	      0.77335      1.60745      5.72540         0.002411     -0.004366     -0.000193
O	      0.77334      4.28640      5.72540         0.002643      0.004347     -0.000206
O	     -1.54669      2.94693      5.72540        -0.005061     -0.000036     -0.000135
O	     -0.77335      4.28640     12.59587        -0.002526      0.004380     -0.000126
O	      1.54669      2.94693     12.59587         0.005044     -0.000020     -0.000099
O	     -0.77335      1.60745     12.59587        -0.002453     -0.004382     -0.000144
O	      3.32546      3.08091     10.30570         0.002519     -0.004284      0.000040
O	      0.77335      1.33948     10.30570         0.002448      0.004260      0.000057
O	      3.55753      0.00000     10.30570        -0.004965      0.000038      0.000029
