ITEM: TIMESTEP
0
ITEM: NUMBER OF ATOMS
160
ITEM: BOX BOUNDS pp pp pp
0.0000000000000000e+00 8.2637155969999991e+00
0.0000000000000000e+00 8.2637155969999991e+00
0.0000000000000000e+00 2.4791146791999999e+01
ITEM: ATOMS id type c_pe_atom
1 2      -4.326432111788
2 2      -4.147242938741
3 2      -4.143917541675
4 2      -4.282430605514
5 2      -4.267117382134
6 2      -4.336286975187
7 2      -4.194184225285
8 2      -4.172012321316
9 2      -4.183150247420
10 2      -4.138070844676
11 2      -4.153159228517
12 2      -4.269796459062
13 2      -4.322870912471
14 2      -4.261051378654
15 2      -4.146275811815
16 2      -4.175175829817
17 2      -4.212810949254
18 2      -4.328676754884
19 2      -4.198108163069
20 2      -4.174780357896
21 2      -4.766082801189
22 2      -4.653820289582
23 2      -4.839368651337
24 2      -4.515254192828
25 2      -4.659933988668
26 2      -4.963615256664
27 2      -4.938488489019
28 2      -4.488757530636
29 2      -4.924291726508
30 2      -4.776402718762
31 2      -4.663772027197
32 2      -4.645567800797
33 2      -4.600252079821
34 2      -4.553769054873
35 2      -4.612093675756
36 2      -4.578594351644
37 2      -4.816674525750
38 2      -4.570051969340
39 2      -4.924527721345
40 2      -4.941525885682
41 2      -4.638197540460
42 2      -4.752504904083
43 2      -4.683191761734
44 2      -4.594467892371
45 2      -4.562841131368
46 2      -4.547254939673
47 2      -4.611781174425
48 2      -4.771936353256
49 2      -4.611955911280
50 2      -4.944562582647
51 2      -4.963575002630
52 2      -4.615547871871
53 2      -4.558753775808
54 2      -4.618090555102
55 2      -4.602043188812
56 2      -4.616975676510
57 2      -4.665707470907
58 2      -4.655324571217
59 2      -4.602394978351
60 2      -4.936533161116
61 2      -4.504087229782
62 2      -4.460942210972
63 2      -4.483510056943
64 2      -4.480896912521
65 1     -11.195326702550
66 1     -11.236655689940
67 1     -11.133757769835
68 1     -11.167254311865
69 1     -11.156768840184
70 1     -11.043403448455
71 1     -11.170469042001
72 1     -10.748135305232
73 1     -11.125119647467
74 1     -10.734383349059
75 1     -11.127758207938
76 1     -11.092988963356
77 1     -11.340468452180
78 1     -11.125644753860
79 1     -11.128547142510
80 1     -11.095154093853
81 1     -11.122788462603
82 1     -11.194077672359
83 1     -11.114979571375
84 1     -11.153708465777
85 1     -11.357175250326
86 1     -11.177050674278
87 1     -11.212502490778
88 1     -11.148347012486
89 1     -11.134714458716
90 1     -11.192888238784
91 1     -10.741272824792
92 1     -11.206193738605
93 1     -11.123544610266
94 1     -11.175729342030
95 1     -11.092662194276
96 1     -11.044452758161
97 1     -11.040066802259
98 1     -11.033023735356
99 1     -11.100768301538
100 1     -11.113267876062
101 1     -11.193176023896
102 1     -10.736215430331
103 1     -10.701763296490
104 1     -11.133340265195
105 1     -10.743357117667
106 1     -11.146767906818
107 1     -11.168099840581
108 1     -11.080261763264
109 1     -11.156876340064
110 1     -11.242595245437
111 1     -11.187523650618
112 1     -11.122639819085
113 1     -11.343571215606
114 1     -11.189792851898
115 1     -11.167497988392
116 1     -11.159531178736
117 1     -11.175269827583
118 1     -11.187605306323
119 1     -11.141939929570
120 1     -11.354554406492
121 1     -11.154265172911
122 1     -11.146311944211
123 1     -11.042797512685
124 1     -11.130364818446
125 1     -11.095562141582
126 1     -11.196468602064
127 1     -11.229461394550
128 1     -11.189209124143
129 1     -11.136045025385
130 1     -11.163202314758
131 1     -11.339610168540
132 1     -11.219128659256
133 1     -11.186352741517
134 1     -11.093773776276
135 1     -11.201035950402
136 1     -11.311434208861
137 1     -11.046181392123
138 1     -11.178997846443
139 1     -11.228648180433
140 1     -11.062003825908
141 1     -11.164508459739
142 1     -11.175545026682
143 1     -11.073846493088
144 1     -11.199068041117
145 1     -11.138269716623
146 1     -10.700723270624
147 1     -11.207677712110
148 1     -11.058427012762
149 1     -11.220310662885
150 1     -11.149719849163
151 1     -11.178787261465
152 1     -11.099532375332
153 1     -11.236997020993
154 1     -11.340548478338
155 1     -11.080941033356
156 1     -11.114707351070
157 1     -11.198223030908
158 1     -11.342067921561
159 1     -10.742145502795
160 1     -11.067607003165
