ITEM: TIMESTEP
0
ITEM: NUMBER OF ATOMS
80
ITEM: BOX BOUNDS pp pp pp
0.0000000000000000e+00 9.2415475530000002e+00
0.0000000000000000e+00 9.2415475530000002e+00
0.0000000000000000e+00 9.2415475530000002e+00
ITEM: ATOMS id type x y z fx fy fz
1 2       6.931160000000       2.310390000000       2.310390000000       0.000035420531      -0.000139142152      -0.000134994546
2 2       6.931160000000       4.294280000000       4.620770000000       0.000049913325       0.016133724471       0.000082324515
3 2       0.000000000000       6.931160000000       0.326490000000       0.000060341078       0.000052170467      -0.016067641981
4 2       0.000000000000       2.310390000000       4.294280000000       0.000061521169      -0.000119484704       0.016133284853
5 2       0.326490000000       0.000000000000       6.931160000000      -0.016067641981       0.000060341078       0.000052170467
6 2       0.326490000000       4.620770000000       2.310390000000      -0.016099246027       0.000083504689      -0.000117208330
7 2       2.310390000000       4.294280000000       0.000000000000      -0.000119484704       0.016133284853       0.000061521169
8 2       2.310390000000       6.931160000000       2.310390000000      -0.000134994546       0.000035420531      -0.000139142152
9 2       2.310390000000       2.310390000000       2.310390000000      -0.000058228609      -0.000058228609      -0.000058228609
10 2       2.310390000000       2.310390000000       6.931160000000      -0.000139142152      -0.000134994546       0.000035420531
11 2       2.310390000000       0.326490000000       4.620770000000      -0.000117208330      -0.016099246027       0.000083504689
12 2       4.294280000000       0.000000000000       2.310390000000       0.016133284853       0.000061521169      -0.000119484704
13 2       4.294280000000       4.620770000000       6.931160000000       0.016133724471       0.000082324515       0.000049913325
14 2       4.620770000000       2.310390000000       0.326490000000       0.000083504689      -0.000117208330      -0.016099246027
15 2       4.620770000000       6.931160000000       4.294280000000       0.000082324515       0.000049913325       0.016133724471
16 2       6.931160000000       0.326490000000       0.000000000000       0.000052170467      -0.016067641981       0.000060341078
17 2       2.310390000000       6.931160000000       6.931160000000      -0.000069843974       0.000026358784       0.000014737598
18 2       2.310390000000       8.915050000000       0.000000000000      -0.000092024473       0.016257280764       0.000020297756
19 2       4.620770000000       2.310390000000       4.947270000000       0.000042287224      -0.000094286265      -0.016216631379
20 2       4.620770000000       6.931160000000       8.915050000000       0.000043482702       0.000026965113       0.016257724850
21 2       4.947270000000       4.620770000000       2.310390000000      -0.016216631379       0.000042287224      -0.000094286265
22 2       4.947270000000       0.000000000000       6.931160000000      -0.016185026864       0.000021481250       0.000024706933
23 2       6.931160000000       8.915050000000       4.620770000000       0.000026965113       0.016257724850       0.000043482702
24 2       6.931160000000       2.310390000000       6.931160000000       0.000014737598      -0.000069843974       0.000026358784
25 2       6.931160000000       6.931160000000       6.931160000000       0.000031263628       0.000031263628       0.000031263628
26 2       6.931160000000       6.931160000000       2.310390000000       0.000026358784       0.000014737598      -0.000069843974
27 2       6.931160000000       4.947270000000       0.000000000000       0.000024706933      -0.016185026864       0.000021481250
28 2       8.915050000000       4.620770000000       6.931160000000       0.016257724850       0.000043482702       0.000026965113
29 2       8.915050000000       0.000000000000       2.310390000000       0.016257280764       0.000020297756      -0.000092024473
30 2       0.000000000000       6.931160000000       4.947270000000       0.000021481250       0.000024706933      -0.016185026864
31 2       0.000000000000       2.310390000000       8.915050000000       0.000020297756      -0.000092024473       0.016257280764
32 2       2.310390000000       4.947270000000       4.620770000000      -0.000094286265      -0.016216631379       0.000042287224
33 1       8.163640000000       5.628810000000       1.455750000000       0.024925286333      -0.012275048659      -0.031416605345
34 1       8.163640000000       3.612740000000       3.165020000000       0.024895881253       0.012267397022       0.031484653330
35 1       8.233520000000       1.455750000000       1.077910000000       0.012124129274      -0.031458353047      -0.024939186598
36 1       8.233520000000       3.165020000000       5.698680000000       0.012119923477       0.031531323406      -0.024867010623
37 1       1.008030000000       3.165020000000       1.077910000000      -0.012194463337       0.031513844170      -0.024950068956
38 1       1.008030000000       1.455750000000       5.698680000000      -0.012155049703      -0.031468033712      -0.024890292179
39 1       1.077910000000       8.233520000000       1.455750000000      -0.024939186598       0.012124129274      -0.031458353047
40 1       1.077910000000       1.008030000000       3.165020000000      -0.024950068956      -0.012194463337       0.031513844170
41 1       1.455750000000       5.698680000000       1.008030000000      -0.031468033712      -0.024890292179      -0.012155049703
42 1       1.455750000000       3.542860000000       3.612740000000      -0.031388400449       0.025072104522       0.012303380246
43 1       1.455750000000       1.077910000000       8.233520000000      -0.031458353047      -0.024939186598       0.012124129274
44 1       1.455750000000       8.163640000000       5.628810000000      -0.031416605345       0.024925286333      -0.012275048659
45 1       3.165020000000       3.542860000000       5.628810000000       0.031439124689       0.025089107600      -0.012346241757
46 1       3.165020000000       1.077910000000       1.008030000000       0.031513844170      -0.024950068956      -0.012194463337
47 1       3.165020000000       8.163640000000       3.612740000000       0.031484653330       0.024895881253       0.012267397022
48 1       3.165020000000       5.698680000000       8.233520000000       0.031531323406      -0.024867010623       0.012119923477
49 1       3.542860000000       3.612740000000       1.455750000000       0.025072104522       0.012303380246      -0.031388400449
50 1       3.542860000000       5.628810000000       3.165020000000       0.025089107600      -0.012346241757       0.031439124689
51 1       3.612740000000       1.455750000000       3.542860000000       0.012303380246      -0.031388400449       0.025072104522
52 1       3.612740000000       3.165020000000       8.163640000000       0.012267397022       0.031484653330       0.024895881253
53 1       5.628810000000       1.455750000000       8.163640000000      -0.012275048659      -0.031416605345       0.024925286333
54 1       5.628810000000       3.165020000000       3.542860000000      -0.012346241757       0.031439124689       0.025089107600
55 1       5.698680000000       8.233520000000       3.165020000000      -0.024867010623       0.012119923477       0.031531323406
56 1       5.698680000000       1.008030000000       1.455750000000      -0.024890292179      -0.012155049703      -0.031468033712
57 1       3.542860000000       1.008030000000       6.076530000000       0.025044591304      -0.012219421229      -0.031536202482
58 1       3.542860000000       8.233520000000       7.785800000000       0.025067288327       0.012161463616       0.031410349171
59 1       3.612740000000       6.076530000000       5.698680000000       0.012257466646      -0.031524403446      -0.024858309898
60 1       3.612740000000       7.785800000000       1.077910000000       0.012274054336       0.031381089378      -0.024964073672
61 1       5.628810000000       7.785800000000       5.698680000000      -0.012277493790       0.031386009552      -0.024921306610
62 1       5.628810000000       6.076530000000       1.077910000000      -0.012304535423      -0.031502168289      -0.024947502863
63 1       5.698680000000       3.612740000000       6.076530000000      -0.024858309898       0.012257466646      -0.031524403446
64 1       5.698680000000       5.628810000000       7.785800000000      -0.024921306610      -0.012277493790       0.031386009552
65 1       6.076530000000       1.077910000000       5.628810000000      -0.031502168289      -0.024947502863      -0.012304535423
66 1       6.076530000000       8.163640000000       8.233520000000      -0.031576962312       0.024857476916       0.012113093195
67 1       6.076530000000       5.698680000000       3.612740000000      -0.031524403446      -0.024858309898       0.012257466646
68 1       6.076530000000       3.542860000000       1.008030000000      -0.031536202482       0.025044591304      -0.012219421229
69 1       7.785800000000       8.163640000000       1.008030000000       0.031443314439       0.024914350797      -0.012160601014
70 1       7.785800000000       5.698680000000       5.628810000000       0.031386009552      -0.024921306610      -0.012277493790
71 1       7.785800000000       3.542860000000       8.233520000000       0.031410349171       0.025067288327       0.012161463616
72 1       7.785800000000       1.077910000000       3.612740000000       0.031381089378      -0.024964073672       0.012274054336
73 1       8.163640000000       8.233520000000       6.076530000000       0.024857476916       0.012113093195      -0.031576962312
74 1       8.163640000000       1.008030000000       7.785800000000       0.024914350797      -0.012160601014       0.031443314439
75 1       8.233520000000       6.076530000000       8.163640000000       0.012113093195      -0.031576962312       0.024857476916
76 1       8.233520000000       7.785800000000       3.542860000000       0.012161463616       0.031410349171       0.025067288327
77 1       1.008030000000       6.076530000000       3.542860000000      -0.012219421229      -0.031536202482       0.025044591304
78 1       1.008030000000       7.785800000000       8.163640000000      -0.012160601014       0.031443314439       0.024914350797
79 1       1.077910000000       3.612740000000       7.785800000000      -0.024964073672       0.012274054336       0.031381089378
80 1       1.077910000000       5.628810000000       6.076530000000      -0.024947502863      -0.012304535423      -0.031502168289
