ITEM: TIMESTEP
0
ITEM: NUMBER OF ATOMS
80
ITEM: BOX BOUNDS pp pp pp
0.0000000000000000e+00 9.2415475530000002e+00
0.0000000000000000e+00 9.2415475530000002e+00
0.0000000000000000e+00 9.2415475530000002e+00
ITEM: ATOMS id type c_pe_atom
1 2      -4.826548664683
2 2      -4.579611567500
3 2      -4.579581697924
4 2      -4.579549092748
5 2      -4.579581697924
6 2      -4.579593793893
7 2      -4.579549092748
8 2      -4.826548664683
9 2      -4.826525914990
10 2      -4.826548664683
11 2      -4.579593793893
12 2      -4.579549092748
13 2      -4.579611567500
14 2      -4.579593793893
15 2      -4.579611567500
16 2      -4.579581697924
17 2      -4.826571412546
18 2      -4.579550526131
19 2      -4.579628087918
20 2      -4.579613000590
21 2      -4.579628087918
22 2      -4.579615991074
23 2      -4.579613000590
24 2      -4.826571412546
25 2      -4.826594160653
26 2      -4.826571412546
27 2      -4.579615991074
28 2      -4.579613000590
29 2      -4.579550526131
30 2      -4.579615991074
31 2      -4.579550526131
32 2      -4.579628087918
33 1      -6.773874832218
34 1      -6.773802251436
35 1      -6.773995188839
36 1      -6.773783503293
37 1      -6.773969891779
38 1      -6.773929359371
39 1      -6.773995188839
40 1      -6.773969891779
41 1      -6.773929359371
42 1      -6.773844036897
43 1      -6.773995188839
44 1      -6.773874832218
45 1      -6.773745460225
46 1      -6.773969891779
47 1      -6.773802251436
48 1      -6.773783503293
49 1      -6.773844036897
50 1      -6.773745460225
51 1      -6.773844036897
52 1      -6.773802251436
53 1      -6.773874832218
54 1      -6.773745460225
55 1      -6.773783503293
56 1      -6.773929359371
57 1      -6.773834656321
58 1      -6.773820534171
59 1      -6.773707153695
60 1      -6.773879422114
61 1      -6.773740315851
62 1      -6.773820263837
63 1      -6.773707153695
64 1      -6.773740315851
65 1      -6.773820263837
66 1      -6.773818166361
67 1      -6.773707153695
68 1      -6.773834656321
69 1      -6.773924606152
70 1      -6.773740315851
71 1      -6.773820534171
72 1      -6.773879422114
73 1      -6.773818166361
74 1      -6.773924606152
75 1      -6.773818166361
76 1      -6.773820534171
77 1      -6.773834656321
78 1      -6.773924606152
79 1      -6.773879422114
80 1      -6.773820263837
