20
Config_type=bulk_beta_phase Weight=1.0 Lattice="12.179714568 0.000000000 -2.964125108 0.000000000 3.104235259 0.000000000 0.000000000 0.000000000 5.914660957" Energy=-170.64390640 Virial="-3.64248 0.00000 -0.14891 0.00000 -3.98540 0.00000 -0.14891 0.00000 -3.88006" pbc="T T T" Properties=species:S:1:pos:R:3:forces:R:3
Ga	      1.92808      1.55212      1.38586         0.006868     -0.000023      0.030791
Ga	      4.16178      0.00000      3.04674        -0.006933      0.000022     -0.030897
Ga	      1.09211      0.00000      4.43344        -0.009894      0.000036      0.014994
Ga	      4.99775      1.55212     -0.00085         0.009859     -0.000041     -0.014827
Ga	      8.01793      0.00000     -0.09620         0.007104      0.000020      0.030797
Ga	     10.25164      1.55212      1.56468        -0.007010     -0.000022     -0.030927
Ga	      7.18197      1.55212      2.95138        -0.009851     -0.000040      0.014968
Ga	     11.08761      0.00000     -1.48291         0.009735      0.000036     -0.014828
O	      6.03727      0.00000      0.04801        -0.002416      0.000044      0.012929
O	      0.05259      1.55212      4.38459         0.002354     -0.000044     -0.012952
O	      2.11736      0.00000      2.82628         0.014304      0.000014     -0.002089
O	      3.97249      1.55212      1.60631        -0.014188     -0.000012      0.002156
O	      4.11164      1.55212      4.26844         0.016918     -0.000022      0.002708
O	      1.97821      0.00000      0.16416        -0.016901      0.000024     -0.002794
O	     12.12712      1.55212     -1.43405        -0.002178     -0.000042      0.012930
O	      6.14245      0.00000      2.90252         0.002253      0.000045     -0.012907
O	      8.20722      1.55212      1.34422         0.014261     -0.000011     -0.002095
O	     10.06235      0.00000      0.12425        -0.014230      0.000012      0.002168
O	     10.20150      0.00000      2.78638         0.016896      0.000023      0.002689
O	      8.06807      1.55212     -1.31790        -0.016951     -0.000022     -0.002815
