ITEM: TIMESTEP
0
ITEM: NUMBER OF ATOMS
30
ITEM: BOX BOUNDS xy xz yz pp pp pp
-2.5571763690000000e+00 5.1143527579999999e+00 -2.5571763690000000e+00
0.0000000000000000e+00 4.4291598350000001e+00 0.0000000000000000e+00
0.0000000000000000e+00 1.3768203757000000e+01 0.0000000000000000e+00
ITEM: ATOMS id type c_pe_atom
1 2      -4.836548493911
2 2      -4.836542864851
3 2      -4.836556491976
4 2      -4.836547154289
5 2      -4.836548463445
6 2      -4.836556392191
7 2      -4.836544492089
8 2      -4.836546720531
9 2      -4.836559164252
10 2      -4.836556480119
11 2      -4.836558852016
12 2      -4.836548787341
13 1     -10.938916641225
14 1     -10.938905072385
15 1     -10.938911708126
16 1     -10.938907202684
17 1     -10.938916551446
18 1     -10.938909120181
19 1     -10.938911757450
20 1     -10.938916037224
21 1     -10.938902402634
22 1     -10.938903287319
23 1     -10.938897681689
24 1     -10.938905090134
25 1     -10.938899066085
26 1     -10.938905388430
27 1     -10.938913708415
28 1     -10.938906327269
29 1     -10.938902243648
30 1     -10.938900612002
