ITEM: TIMESTEP
0
ITEM: NUMBER OF ATOMS
30
ITEM: BOX BOUNDS xy xz yz pp pp pp
-2.5166666539999998e+00 5.0333333089999996e+00 -2.5166666539999998e+00
0.0000000000000000e+00 4.3589949260000003e+00 0.0000000000000000e+00
0.0000000000000000e+00 1.3550093598000000e+01 0.0000000000000000e+00
ITEM: ATOMS id type c_pe_atom
1 2      -3.618038532611
2 2      -3.617943804159
3 2      -3.618040211227
4 2      -3.618095113938
5 2      -3.617959101351
6 2      -3.618135051843
7 2      -3.617865303876
8 2      -3.618008344311
9 2      -3.618023226710
10 2      -3.618051840515
11 2      -3.618023527991
12 2      -3.617936278650
13 1      -7.485154711600
14 1      -7.485193476333
15 1      -7.485196231833
16 1      -7.485225539524
17 1      -7.485297374160
18 1      -7.485328564956
19 1      -7.485314963447
20 1      -7.485321459066
21 1      -7.485266803548
22 1      -7.485275272325
23 1      -7.485221666695
24 1      -7.485205554835
25 1      -7.485288707134
26 1      -7.485281598085
27 1      -7.485230484767
28 1      -7.485241917666
29 1      -7.485288560842
30 1      -7.485179255985
