ITEM: TIMESTEP
0
ITEM: NUMBER OF ATOMS
30
ITEM: BOX BOUNDS xy xz yz pp pp pp
-2.5166666539999998e+00 5.0333333089999996e+00 -2.5166666539999998e+00
0.0000000000000000e+00 4.3589949260000003e+00 0.0000000000000000e+00
0.0000000000000000e+00 1.3550093598000000e+01 0.0000000000000000e+00
ITEM: ATOMS id type v_vir_xx v_vir_yy v_vir_zz v_vir_xy v_vir_xz v_vir_yz
1 2      -4.154334236802      -4.154309749841      -3.287920017839       0.000023179038      -0.000017221533      -0.000016579582
2 2      -4.154400040892      -4.154421009328      -3.288103317982      -0.000052282137       0.000001466499      -0.000026952823
3 2      -4.154370092253      -4.154323179428      -3.287986414172      -0.000001564046      -0.000018641594      -0.000013681673
4 2      -4.154356009592      -4.154313188314      -3.287860879650      -0.000002781633      -0.000003513475       0.000017283477
5 2      -4.154369544561      -4.154420506561      -3.288070860881       0.000012607148       0.000029550902      -0.000012562171
6 2      -4.154354053222      -4.154345426369      -3.287842384179       0.000017888321       0.000001904567       0.000027376803
7 2      -4.154443877297      -4.154433680262      -3.288093476147      -0.000002558910       0.000025919102      -0.000019267347
8 2      -4.154311718864      -4.154295271827      -3.288015723336       0.000034916228       0.000004709006      -0.000008508852
9 2      -4.154323201266      -4.154323555076      -3.288010369969      -0.000031037023      -0.000012590873       0.000035524774
10 2      -4.154311283600      -4.154343474807      -3.288002020374       0.000020510446      -0.000008779612      -0.000001222714
11 2      -4.154356475795      -4.154333036491      -3.288018643299      -0.000002029048      -0.000015284862       0.000024431361
12 2      -4.154419490802      -4.154380518520      -3.288090045138      -0.000016870272       0.000012527183      -0.000010122770
13 1       1.901638272984       2.747844734757       1.831527933230      -0.732735001391       0.494265766713       0.285395887508
14 1       3.170862400318       1.478624805931       1.831521328904      -0.000001707807      -0.000009458013      -0.570752826098
15 1       1.901698544314       2.747794563720       1.831514462188       0.732771228683      -0.494273572509       0.285374908656
16 1       1.901701364798       2.747731319496       1.831505683802      -0.732750873051       0.494284255734       0.285339250486
17 1       1.901674154952       2.747802481394       1.831514282012       0.732746882981      -0.494279641683       0.285383950661
18 1       3.170913277307       1.478645727932       1.831517040001       0.000026578644      -0.000007272619      -0.570756855021
19 1       1.901639397131       2.747792294453       1.831525564750      -0.732768343202       0.494268409233       0.285385885101
20 1       3.170816171871       1.478587967472       1.831525766592      -0.000033610930       0.000013137137      -0.570744113824
21 1       1.901668868283       2.747712106012       1.831505876920       0.732778631539      -0.494277025460       0.285342716446
22 1       1.901730507640       2.747871325490       1.831517481383      -0.732740692319       0.494294466164       0.285381416053
23 1       1.901751558647       2.747786321759       1.831512459560       0.732772582334      -0.494289275231       0.285355426052
24 1       3.170894812358       1.478655439725       1.831506979564      -0.000027660770       0.000003501595      -0.570736123070
25 1       1.901684471065       2.747789950052       1.831515660244      -0.732758642286       0.494272335801       0.285378047026
26 1       3.170841814053       1.478634775173       1.831517178835       0.000002567261       0.000002115688      -0.570753449232
27 1       1.901651555203       2.747844440212       1.831534979544       0.732748287143      -0.494258040238       0.285392803682
28 1       1.901691872448       2.747778199996       1.831501291320      -0.732770814994       0.494280254704       0.285360175136
29 1       1.901685604658       2.747823568551       1.831511573678       0.732732340524      -0.494289659899       0.285387801442
30 1       3.170816820387       1.478614137429       1.831508996395       0.000008223097      -0.000000248663      -0.570735796232
