ITEM: TIMESTEP
0
ITEM: NUMBER OF ATOMS
20
ITEM: BOX BOUNDS xy xz yz pp pp pp
-1.3986040388759999e+00 1.2535209795366001e+01 0.0000000000000000e+00
0.0000000000000000e+00 3.1042352590000002e+00 -1.3986040388759999e+00
0.0000000000000000e+00 5.7469227399280003e+00 0.0000000000000000e+00
ITEM: ATOMS id type c_pe_atom
1 2      -6.283882449552
2 2      -6.284001419413
3 2      -9.430819241951
4 2      -9.430829414213
5 2      -6.283869787074
6 2      -6.283956265691
7 2      -9.430820443770
8 2      -9.430790149526
9 1      -3.621955825629
10 1      -3.621968297080
11 1      -6.926450625088
12 1      -6.926416216954
13 1      -3.577040873803
14 1      -3.577148072094
15 1      -3.622017640621
16 1      -3.621997860753
17 1      -6.926472725003
18 1      -6.926522719233
19 1      -3.577124526018
20 1      -3.577180089583
