ITEM: TIMESTEP
0
ITEM: NUMBER OF ATOMS
80
ITEM: BOX BOUNDS pp pp pp
0.0000000000000000e+00 9.5238758899999993e+00
0.0000000000000000e+00 9.5238758899999993e+00
0.0000000000000000e+00 9.5238758899999993e+00
ITEM: ATOMS id type c_pe_atom
1 2      -6.790183829522
2 2      -6.580820614192
3 2      -6.580849554850
4 2      -6.580850462812
5 2      -6.580849554850
6 2      -6.580854102767
7 2      -6.580850462812
8 2      -6.790183829522
9 2      -6.790199965170
10 2      -6.790183829522
11 2      -6.580854102767
12 2      -6.580850462812
13 2      -6.580820614192
14 2      -6.580854102767
15 2      -6.580820614192
16 2      -6.580849554850
17 2      -6.790167693932
18 2      -6.580827801719
19 2      -6.580783226435
20 2      -6.580797952825
21 2      -6.580783226435
22 2      -6.580778678306
23 2      -6.580797952825
24 2      -6.790167693932
25 2      -6.790151557904
26 2      -6.790167693932
27 2      -6.580778678306
28 2      -6.580797952825
29 2      -6.580827801719
30 2      -6.580778678306
31 2      -6.580827801719
32 2      -6.580783226435
33 1      -5.464874507260
34 1      -5.464849302352
35 1      -5.464824956183
36 1      -5.464852513145
37 1      -5.464834688971
38 1      -5.464820317306
39 1      -5.464824956183
40 1      -5.464834688971
41 1      -5.464820317306
42 1      -5.464860064964
43 1      -5.464824956183
44 1      -5.464874507260
45 1      -5.464927198602
46 1      -5.464834688971
47 1      -5.464849302352
48 1      -5.464852513145
49 1      -5.464860064964
50 1      -5.464927198602
51 1      -5.464860064964
52 1      -5.464849302352
53 1      -5.464874507260
54 1      -5.464927198602
55 1      -5.464852513145
56 1      -5.464820317306
57 1      -5.464921910857
58 1      -5.464890743225
59 1      -5.464905913183
60 1      -5.464856921395
61 1      -5.464909682696
62 1      -5.464945490485
63 1      -5.464905913183
64 1      -5.464909682696
65 1      -5.464945490485
66 1      -5.464901415251
67 1      -5.464905913183
68 1      -5.464921910857
69 1      -5.464847784106
70 1      -5.464909682696
71 1      -5.464890743225
72 1      -5.464856921395
73 1      -5.464901415251
74 1      -5.464847784106
75 1      -5.464901415251
76 1      -5.464890743225
77 1      -5.464921910857
78 1      -5.464847784106
79 1      -5.464856921395
80 1      -5.464945490485
