ITEM: TIMESTEP
0
ITEM: NUMBER OF ATOMS
30
ITEM: BOX BOUNDS xy xz yz pp pp pp
-2.4913480760000000e+00 4.9826961519999999e+00 -2.4913480760000000e+00
0.0000000000000000e+00 4.3151418589999997e+00 0.0000000000000000e+00
0.0000000000000000e+00 1.3413774749000000e+01 0.0000000000000000e+00
ITEM: ATOMS id type c_pe_atom
1 2      -4.390794896929
2 2      -4.390781966374
3 2      -4.390803942625
4 2      -4.390810595544
5 2      -4.390786321930
6 2      -4.390793648065
7 2      -4.390778289896
8 2      -4.390783738499
9 2      -4.390790743800
10 2      -4.390788363518
11 2      -4.390789006579
12 2      -4.390781029440
13 1     -11.213707202561
14 1     -11.213706440573
15 1     -11.213704783120
16 1     -11.213712560589
17 1     -11.213715297427
18 1     -11.213711957329
19 1     -11.213721707179
20 1     -11.213721961900
21 1     -11.213718592329
22 1     -11.213718285351
23 1     -11.213717820855
24 1     -11.213720757660
25 1     -11.213715567329
26 1     -11.213717298590
27 1     -11.213720000646
28 1     -11.213718093062
29 1     -11.213716921342
30 1     -11.213717827883
