40
Config_type=bulk_kappa_phase Weight=1.0 Lattice="8.766922670 0.000000000 0.000000000 0.000000000 5.105254280 0.000000000 0.000000000 0.000000000 9.380864861" Energy=-340.48072680 Virial="5.57761 -0.00038 0.00310 -0.00038 5.90048 0.00435 0.00310 0.00435 5.45292" pbc="T T T" Properties=species:S:1:pos:R:3:forces:R:3
Ga	      1.37593      1.57873      8.32774         0.000535      0.002425      0.010937
Ga	      3.11616      4.13135      8.32774        -0.001626      0.002509      0.011165
Ga	      5.77232      0.90326      7.49274        -0.007939      0.009154     -0.014126
Ga	      7.48669      3.45589      7.49275         0.006423      0.008941     -0.015176
Ga	      4.71941      3.45823      5.59371        -0.006884     -0.003673     -0.003229
Ga	      1.47199      3.50586      5.71791        -0.009278     -0.004616     -0.009102
Ga	      3.02010      0.95323      5.71791         0.009492     -0.005223     -0.008726
Ga	      8.53960      0.90560      5.59371         0.008709     -0.002712     -0.003729
Ga	      1.38878      1.64896      2.80217        -0.006788     -0.009559     -0.013449
Ga	      3.10332      4.20158      2.80217         0.006091     -0.009652     -0.013756
Ga	      5.75854      0.97454      3.63725        -0.001564      0.000725      0.010995
Ga	      7.50047      3.52717      3.63725         0.000716      0.000032      0.010734
Ga	      4.15705      1.64754      0.90356         0.002307      0.000855     -0.003452
Ga	      5.85537      4.15203      1.02727        -0.011123      0.004149     -0.009154
Ga	      7.40365      1.59941      1.02726         0.011350      0.004953     -0.009176
Ga	      0.33504      4.20017      0.90356        -0.002700      0.001154     -0.002824
O	      7.32194      1.77712      4.42321        -0.002978      0.002210      0.008712
O	      0.03669      0.77500      0.03907        -0.010409     -0.006544     -0.002294
O	      7.35478      0.09658      6.93228        -0.010854      0.007265      0.002802
O	      7.28340      4.96443      2.13011        -0.001923     -0.001563      0.009779
O	      5.93707      4.32975      4.42321         0.002950      0.001951      0.009093
O	      7.42987      3.34007      9.36524         0.000261     -0.002027     -0.001962
O	      5.90423      2.64921      6.93228         0.011709      0.006769      0.003085
O	      5.97562      2.41180      2.13012         0.001377     -0.000904      0.009922
O	      1.44537      1.76503      4.67484        -0.001305      0.002298     -0.002551
O	      2.93918      0.77611      9.11403        -0.003684     -0.003093      0.007933
O	      1.59357      0.14001      6.82138        -0.001978      0.000839      0.010669
O	      1.52091      5.00824      2.24190         0.009947     -0.005622      0.003279
O	      0.07245      4.33075      4.72962         0.007560      0.007015     -0.002061
O	      1.55291      3.32874      9.11403         0.004132     -0.003735      0.008271
O	      0.15502      2.43140      6.88333         0.000463      0.007644     -0.002561
O	      8.72029      2.67341      2.19301        -0.002746     -0.006840     -0.000862
O	      4.41963      1.77813      4.72963        -0.008230      0.006897     -0.001974
O	      5.82914      0.78745      9.36524        -0.000128     -0.002253     -0.002981
O	      4.33706      4.98402      6.88333         0.000033      0.007640     -0.002600
O	      4.53873      0.12078      2.19301         0.002987     -0.007351     -0.001597
O	      3.04672      4.31766      4.67484         0.001680      0.001557     -0.001956
O	      4.45541      3.32762      0.03907         0.009897     -0.006234     -0.002315
O	      2.89851      2.69263      6.82138         0.002482      0.000734      0.010631
O	      2.97119      2.45562      2.24190        -0.008965     -0.006116      0.003606
