ITEM: TIMESTEP
0
ITEM: NUMBER OF ATOMS
160
ITEM: BOX BOUNDS pp pp pp
0.0000000000000000e+00 8.5039773939999996e+00
0.0000000000000000e+00 8.5039773939999996e+00
0.0000000000000000e+00 2.5511932182999999e+01
ITEM: ATOMS id type c_pe_atom
1 2      -4.858001545884
2 2      -4.683380274591
3 2      -4.679878083726
4 2      -4.828709759221
5 2      -4.816055224243
6 2      -4.881821087261
7 2      -4.733998668931
8 2      -4.670529762353
9 2      -4.704842130738
10 2      -4.684941120251
11 2      -4.657295465346
12 2      -4.814728594756
13 2      -4.865073821195
14 2      -4.804902818157
15 2      -4.675480438381
16 2      -4.690427553974
17 2      -4.746462022055
18 2      -4.875808493048
19 2      -4.733051278794
20 2      -4.690611727387
21 2      -5.174748400846
22 2      -5.139703051297
23 2      -5.322697191629
24 2      -4.988129813820
25 2      -5.128673161498
26 2      -5.417511449278
27 2      -5.391793001809
28 2      -4.948232743831
29 2      -5.376689013751
30 2      -5.252038784765
31 2      -5.124459744128
32 2      -5.111620392456
33 2      -5.098656193667
34 2      -5.058391068783
35 2      -5.085766634874
36 2      -5.005860721367
37 2      -5.244967048357
38 2      -5.077135214460
39 2      -5.382846164592
40 2      -5.399068457685
41 2      -5.119473403121
42 2      -5.202199940319
43 2      -5.125737206227
44 2      -5.091553688788
45 2      -5.064325285604
46 2      -5.041719039889
47 2      -5.114556626256
48 2      -5.259392956433
49 2      -5.110668868320
50 2      -5.402615945044
51 2      -5.414590051313
52 2      -5.091172975847
53 2      -4.992686353818
54 2      -5.090502053884
55 2      -5.092376296504
56 2      -5.059206333806
57 2      -5.127682691770
58 2      -5.120722892770
59 2      -5.085507232537
60 2      -5.384915268611
61 2      -5.057349370515
62 2      -5.012862923171
63 2      -5.012222951559
64 2      -5.033007486095
65 1     -10.833250734446
66 1     -10.900125482967
67 1     -10.822140581587
68 1     -10.850537651171
69 1     -10.817667614600
70 1     -10.679738537814
71 1     -10.821468242417
72 1     -10.563183400648
73 1     -10.777822249792
74 1     -10.556452300856
75 1     -10.786923503091
76 1     -10.764794301422
77 1     -10.973948908079
78 1     -10.795911007812
79 1     -10.794801197270
80 1     -10.704441896580
81 1     -10.771223589315
82 1     -10.871304503524
83 1     -10.754606742646
84 1     -10.793561245545
85 1     -11.002572207434
86 1     -10.852304241512
87 1     -10.874368889917
88 1     -10.781552218788
89 1     -10.782682698214
90 1     -10.830155189504
91 1     -10.563282735111
92 1     -10.883380049901
93 1     -10.796683523593
94 1     -10.856222951384
95 1     -10.701379390943
96 1     -10.689540987455
97 1     -10.683532555136
98 1     -10.680236493736
99 1     -10.789143028259
100 1     -10.803916898877
101 1     -10.863150457324
102 1     -10.551831315629
103 1     -10.517278801871
104 1     -10.776574087344
105 1     -10.560080174993
106 1     -10.784007695504
107 1     -10.836488692275
108 1     -10.754878148348
109 1     -10.806279546247
110 1     -10.919514594353
111 1     -10.860217404171
112 1     -10.790628083585
113 1     -10.986882714283
114 1     -10.861157694214
115 1     -10.820842854118
116 1     -10.806755516250
117 1     -10.819833849509
118 1     -10.869538017222
119 1     -10.824519679379
120 1     -10.986265870337
121 1     -10.799320264975
122 1     -10.790515584667
123 1     -10.699882422520
124 1     -10.792929573652
125 1     -10.773506738512
126 1     -10.888357126455
127 1     -10.884091157472
128 1     -10.861527224378
129 1     -10.800158977127
130 1     -10.814288187676
131 1     -10.963465337422
132 1     -10.886918128985
133 1     -10.799316421383
134 1     -10.708451081019
135 1     -10.869244323628
136 1     -10.955866451810
137 1     -10.697566545732
138 1     -10.863175912040
139 1     -10.899242531216
140 1     -10.685587027186
141 1     -10.842072322470
142 1     -10.853453402507
143 1     -10.713612344151
144 1     -10.837350672531
145 1     -10.797282177789
146 1     -10.515142229231
147 1     -10.873363122264
148 1     -10.721799381193
149 1     -10.922308423204
150 1     -10.792215730019
151 1     -10.811135364372
152 1     -10.743481419930
153 1     -10.917531204369
154 1     -10.979191644850
155 1     -10.761722388702
156 1     -10.757541422491
157 1     -10.859374700575
158 1     -10.971966023543
159 1     -10.560956894153
160 1     -10.728433951322
