ITEM: TIMESTEP
0
ITEM: NUMBER OF ATOMS
20
ITEM: BOX BOUNDS xy xz yz pp pp pp
-1.3624572147980001e+00 1.2211238170974999e+01 0.0000000000000000e+00
0.0000000000000000e+00 3.0240065150000000e+00 -1.3624572147980001e+00
0.0000000000000000e+00 5.5983939214760001e+00 0.0000000000000000e+00
ITEM: ATOMS id type c_pe_atom
1 2      -4.621266244385
2 2      -4.621266716979
3 2      -4.077335531695
4 2      -4.077324459307
5 2      -4.621268920878
6 2      -4.621265609111
7 2      -4.077328602222
8 2      -4.077333668493
9 1     -11.383049243815
10 1     -11.383050988084
11 1     -11.154238998762
12 1     -11.154235468479
13 1     -11.313172601615
14 1     -11.313188897609
15 1     -11.383050517029
16 1     -11.383042760241
17 1     -11.154244974587
18 1     -11.154239603220
19 1     -11.313195265026
20 1     -11.313183189607
