ITEM: TIMESTEP
0
ITEM: NUMBER OF ATOMS
30
ITEM: BOX BOUNDS xy xz yz pp pp pp
-2.5622400949999999e+00 5.1244801889999998e+00 -2.5622400949999999e+00
0.0000000000000000e+00 4.4379304480000004e+00 0.0000000000000000e+00
0.0000000000000000e+00 1.3795467525999999e+01 0.0000000000000000e+00
ITEM: ATOMS id type c_pe_atom
1 2      -4.865404310831
2 2      -4.865400969501
3 2      -4.865408082971
4 2      -4.865407511264
5 2      -4.865391438169
6 2      -4.865409419948
7 2      -4.865402941152
8 2      -4.865401347608
9 2      -4.865409465881
10 2      -4.865411462487
11 2      -4.865406161287
12 2      -4.865400951703
13 1     -10.915624362001
14 1     -10.915624326435
15 1     -10.915625518320
16 1     -10.915623264507
17 1     -10.915621803598
18 1     -10.915624124291
19 1     -10.915616533877
20 1     -10.915615902229
21 1     -10.915616547571
22 1     -10.915625263523
23 1     -10.915624809980
24 1     -10.915624026363
25 1     -10.915622692423
26 1     -10.915623185433
27 1     -10.915621489534
28 1     -10.915615041159
29 1     -10.915617030278
30 1     -10.915615263454
