ITEM: TIMESTEP
0
ITEM: NUMBER OF ATOMS
40
ITEM: BOX BOUNDS pp pp pp
0.0000000000000000e+00 8.9429652940000004e+00
0.0000000000000000e+00 5.2077694259999996e+00
0.0000000000000000e+00 9.5692356410000006e+00
ITEM: ATOMS id type c_pe_atom
1 2      -8.364248014844
2 2      -8.364299679923
3 2      -9.574586341661
4 2      -9.574577991796
5 2      -7.241527098440
6 2      -5.865277396290
7 2      -5.865253011780
8 2      -7.241530303906
9 2      -9.575764252591
10 2      -9.575704581567
11 2      -8.366362970020
12 2      -8.366440117369
13 2      -7.235542444709
14 2      -5.865527510247
15 2      -5.865475182602
16 2      -7.235524335827
17 1      -2.546008162476
18 1      -1.781378268901
19 1      -3.069472308060
20 1      -8.555503512904
21 1      -2.545964801856
22 1      -6.374452435280
23 1      -3.069416690862
24 1      -8.555524597888
25 1      -6.376339516996
26 1      -2.542449841580
27 1      -8.554125177761
28 1      -3.068183124052
29 1      -1.782305480461
30 1      -2.542388768797
31 1      -5.944109611650
32 1      -5.943748829551
33 1      -1.782495410314
34 1      -6.374423549680
35 1      -5.944168648265
36 1      -5.943799475742
37 1      -6.376357330378
38 1      -1.781324301226
39 1      -8.554204948832
40 1      -3.068067314980
