ITEM: TIMESTEP
0
ITEM: NUMBER OF ATOMS
40
ITEM: BOX BOUNDS pp pp pp
0.0000000000000000e+00 8.9429652940000004e+00
0.0000000000000000e+00 5.2077694259999996e+00
0.0000000000000000e+00 9.5692356410000006e+00
ITEM: ATOMS id type v_vir_xx v_vir_yy v_vir_zz v_vir_xy v_vir_xz v_vir_yz
1 2      -0.777517952961      -0.992176115628      -1.349468341552       0.601416021519       0.948860664675      -0.930776450723
2 2      -0.777584000882      -0.992198466143      -1.349444209138      -0.601396792968      -0.948880373852      -0.930742924472
3 2      -2.282996001951      -2.756370627040      -2.174864595030      -0.414993552052      -0.273013810116       0.679407749669
4 2      -2.283084834700      -2.756394961581      -2.174864574711       0.414993355287       0.273030546404       0.679390790563
5 2      -1.078398818426      -0.787380655840      -0.719636293180      -0.385842756171       0.616752534092      -0.116429992249
6 2      -1.384829354231      -1.619508758337      -3.173228464753       0.442569342603      -0.525138770244      -1.122649483754
7 2      -1.384852995897      -1.619505142904      -3.173261700641      -0.442551988445       0.525140974221      -1.122663036833
8 2      -1.078346783564      -0.787453501037      -0.719603660217       0.385791913398      -0.616780955788      -0.116514578251
9 2      -2.281879701901      -2.754721511886      -2.169403822902       0.414501577981      -0.273826096352      -0.681654189105
10 2      -2.281884751787      -2.754753856934      -2.169451973734      -0.414529177972       0.273800702389      -0.681690800842
11 2      -0.784778658940      -0.998236555892      -1.356412487723      -0.604984492862       0.950585328301       0.925449928516
12 2      -0.784742587666      -0.998152978134      -1.356410359336       0.605018057776      -0.950670420352       0.925425320992
13 2      -1.070696216053      -0.789133265818      -0.719626824711      -0.385266324882      -0.615001997102       0.114539297063
14 2      -1.378689767849      -1.623477732011      -3.177217452419      -0.441986649246      -0.526799558802       1.118711530462
15 2      -1.378711786530      -1.623515163614      -3.177195328429       0.441947887215       0.526791401407       1.118745764621
16 2      -1.070668012230      -0.789112160286      -0.719612060714       0.385251795571       0.615029760250       0.114536110697
17 1       0.972034661656       1.730696988218       1.302549677545       0.429409712869       0.994128561361      -0.825293175297
18 1       0.869586116956       1.198956684847       1.442653046765      -0.382165680483      -1.003013006810      -0.511365658200
19 1       1.819942368425       1.342409835911       1.490686726681      -0.468624889836      -0.581097818183      -0.930068477119
20 1       2.647041675043       2.734961279191       3.249382034410      -0.109760779161      -0.522856617766      -0.962853304732
21 1       0.972029987939       1.730634777303       1.302554050046      -0.429421788076      -0.994115621167      -0.825249289793
22 1       2.304530905917       2.103128466235       2.253461133869      -0.086574960614      -0.100610444167      -0.316998883960
23 1       1.819922531455       1.342417590086       1.490711326070       0.468602463790       0.581052583107      -0.930076096616
24 1       2.647033906660       2.735025797025       3.249381010924       0.109770638307       0.522836678210      -0.962842114513
25 1       2.308947037390       2.102354998727       2.254434688285      -0.086611950857       0.100364518617       0.318545356935
26 1       0.969739393969       1.724373725803       1.298858594498      -0.426915120049       0.996048498694       0.827047213494
27 1       2.641824122516       2.728889575237       3.245624077423      -0.107290998453       0.523045898671       0.966052732376
28 1       1.818459956697       1.338430847479       1.487518978672      -0.468051193592       0.582084678845       0.928785880659
29 1       0.871567777040       1.201782758469       1.443210749874      -0.384999392191       1.002682685549       0.512605722644
30 1       0.969723557699       1.724323465677       1.298858212873       0.426902849842      -0.996028769828       0.827030971944
31 1       1.861391786122       2.667130632758       2.526976523813      -0.073037593205       0.153578601730      -0.068320649064
32 1       1.864069962992       2.668429066082       2.527032127408      -0.073450687387      -0.151842399739       0.069236152377
33 1       0.871606069779       1.201813576207       1.443226953695       0.385034357162      -1.002702342773       0.512625040241
34 1       2.304538001350       2.103110737435       2.253457260536       0.086558076362       0.100611572802      -0.316988838636
35 1       1.861448897830       2.667164205066       2.526987639878       0.073071360910      -0.153556926321      -0.068309396094
36 1       1.864066236202       2.668454245873       2.527033067172       0.073428674642       0.151848013415       0.069215060456
37 1       2.308938107005       2.102355997647       2.254338533742       0.086597424663      -0.100372734524       0.318547175803
38 1       0.869597616400       1.198955141442       1.442677059725       0.382185741750       1.002994999759      -0.511338525210
39 1       2.641833474889       2.728843028356       3.245622681400       0.107294973509      -0.523011990283       0.966071328837
40 1       1.818486618074       1.338336540595       1.487546453315       0.468062265327      -0.582050835697       0.928767450340
