ITEM: TIMESTEP
0
ITEM: NUMBER OF ATOMS
80
ITEM: BOX BOUNDS pp pp pp
0.0000000000000000e+00 9.5426977789999992e+00
0.0000000000000000e+00 9.5426977789999992e+00
0.0000000000000000e+00 9.5426977789999992e+00
ITEM: ATOMS id type v_vir_xx v_vir_yy v_vir_zz v_vir_xy v_vir_xz v_vir_yz
1 2      -4.442267967361      -4.442269007804      -4.442273960025      -0.690822000552       0.690818277759       0.690821277667
2 2      -3.551730721882      -3.298508934508      -3.685947566678       0.000002411763       0.625008282838      -0.000006327819
3 2      -3.686044778677      -3.551784254110      -3.298640233183       0.624992325696       0.000003328531      -0.000003517367
4 2      -3.685975100418      -3.551739964416      -3.298514661462      -0.624999227066      -0.000004707835       0.000006090670
5 2      -3.298640233183      -3.686044778677      -3.551784254110       0.000003328531      -0.000003517367       0.624992325696
6 2      -3.298619693350      -3.686013564172      -3.551772254893       0.000007706779      -0.000007195503      -0.624998986970
7 2      -3.551739964416      -3.298514661462      -3.685975100418       0.000006090670      -0.624999227066      -0.000004707835
8 2      -4.442273960025      -4.442267967361      -4.442269007804       0.690818277759       0.690821277667      -0.690822000552
9 2      -4.442267182452      -4.442267182452      -4.442267182452      -0.690820787543      -0.690820787543      -0.690820787543
10 2      -4.442269007804      -4.442273960025      -4.442267967361       0.690821277667      -0.690822000552       0.690818277759
11 2      -3.551772254893      -3.298619693350      -3.686013564172      -0.000007195503      -0.624998986970       0.000007706779
12 2      -3.298514661462      -3.685975100418      -3.551739964416      -0.000004707835       0.000006090670      -0.624999227066
13 2      -3.298508934508      -3.685947566678      -3.551730721882      -0.000006327819       0.000002411763       0.625008282838
14 2      -3.686013564172      -3.551772254893      -3.298619693350      -0.624998986970       0.000007706779      -0.000007195503
15 2      -3.685947566678      -3.551730721882      -3.298508934508       0.625008282838      -0.000006327819       0.000002411763
16 2      -3.551784254110      -3.298640233183      -3.686044778677      -0.000003517367       0.624992325696       0.000003328531
17 2      -4.442275803518      -4.442274764020      -4.442269801611      -0.690818747685       0.690822488939       0.690819487469
18 2      -3.551753319862      -3.298547718995      -3.685991066756       0.000002569900       0.624995868200      -0.000004609983
19 2      -3.686001650126      -3.551763093859      -3.298587528307       0.625002904197       0.000007617257      -0.000001455135
20 2      -3.685963520475      -3.551744060342      -3.298541985964      -0.625004916981      -0.000008995454       0.000008153018
21 2      -3.298587528307      -3.686001650126      -3.551763093859       0.000007617257      -0.000001455135       0.625002904197
22 2      -3.298608061890      -3.686032851904      -3.551775074595       0.000005986209      -0.000007039235      -0.624996235997
23 2      -3.551744060342      -3.298541985964      -3.685963520475       0.000008153018      -0.625004916981      -0.000008995454
24 2      -4.442269801611      -4.442275803518      -4.442274764020       0.690822488939       0.690819487469      -0.690818747685
25 2      -4.442276606636      -4.442276606636      -4.442276606636      -0.690819964915      -0.690819964915      -0.690819964915
26 2      -4.442274764020      -4.442269801611      -4.442275803518       0.690819487469      -0.690818747685       0.690822488939
27 2      -3.551775074595      -3.298608061890      -3.686032851904      -0.000007039235      -0.624996235997       0.000005986209
28 2      -3.298541985964      -3.685963520475      -3.551744060342      -0.000008995454       0.000008153018      -0.625004916981
29 2      -3.298547718995      -3.685991066756      -3.551753319862      -0.000004609983       0.000002569900       0.624995868200
30 2      -3.686032851904      -3.551775074595      -3.298608061890      -0.624996235997       0.000005986209      -0.000007039235
31 2      -3.685991066756      -3.551753319862      -3.298547718995       0.624995868200      -0.000004609983       0.000002569900
32 2      -3.551763093859      -3.298587528307      -3.686001650126      -0.000001455135       0.625002904197       0.000007617257
33 1       3.464635833241       3.321408542520       2.949701493535      -0.311146140303       0.659592967415       0.339897061683
34 1       3.464611544674       3.321413923352       2.949693869377       0.311144624422      -0.659565245799       0.339891225224
35 1       3.321429380903       2.949719260081       3.464632284140      -0.339895907171      -0.311158306259      -0.659607027175
36 1       3.321411176264       2.949705035141       3.464611224205       0.339886267856      -0.311163893705       0.659583831576
37 1       3.321385167954       2.949693176786       3.464604071305      -0.339884809620       0.311175374883       0.659581430919
38 1       3.321402198757       2.949710662106       3.464632700156       0.339889169049       0.311168995772      -0.659612204700
39 1       3.464632284140       3.321429380903       2.949719260081      -0.311158306259      -0.659607027175      -0.339895907171
40 1       3.464604071305       3.321385167954       2.949693176786       0.311175374883       0.659581430919      -0.339884809620
41 1       2.949710662106       3.464632700156       3.321402198757      -0.659612204700       0.339889169049       0.311168995772
42 1       2.949710113449       3.464644281153       3.321429682254       0.659595408488      -0.339896281605       0.311136810175
43 1       2.949719260081       3.464632284140       3.321429380903      -0.659607027175      -0.339895907171      -0.311158306259
44 1       2.949701493535       3.464635833241       3.321408542520       0.659592967415       0.339897061683      -0.311146140303
45 1       2.949686009278       3.464618844417       3.321389057444      -0.659569163747      -0.339888108091      -0.311150281846
46 1       2.949693176786       3.464604071305       3.321385167954       0.659581430919      -0.339884809620       0.311175374883
47 1       2.949693869377       3.464611544674       3.321413923352      -0.659565245799       0.339891225224       0.311144624422
48 1       2.949705035141       3.464611224205       3.321411176264       0.659583831576       0.339886267856      -0.311163893705
49 1       3.464644281153       3.321429682254       2.949710113449       0.311136810175       0.659595408488      -0.339896281605
50 1       3.464618844417       3.321389057444       2.949686009278      -0.311150281846      -0.659569163747      -0.339888108091
51 1       3.321429682254       2.949710113449       3.464644281153      -0.339896281605       0.311136810175       0.659595408488
52 1       3.321413923352       2.949693869377       3.464611544674       0.339891225224       0.311144624422      -0.659565245799
53 1       3.321408542520       2.949701493535       3.464635833241       0.339897061683      -0.311146140303       0.659592967415
54 1       3.321389057444       2.949686009278       3.464618844417      -0.339888108091      -0.311150281846      -0.659569163747
55 1       3.464611224205       3.321411176264       2.949705035141      -0.311163893705       0.659583831576       0.339886267856
56 1       3.464632700156       3.321402198757       2.949710662106       0.311168995772      -0.659612204700       0.339889169049
57 1       3.464644135170       3.321401462775       2.949707366939      -0.311147044714       0.659591625922       0.339893291891
58 1       3.464623039221       3.321409567815       2.949691332212       0.311143841227      -0.659570415551       0.339889786168
59 1       3.321433858156       2.949724136001       3.464636864056      -0.339892109157      -0.311156411045      -0.659609155503
60 1       3.321415933882       2.949696237938       3.464608623905       0.339887145237      -0.311164689854       0.659585545753
61 1       3.321392366889       2.949689646171       3.464611846335      -0.339883336325       0.311171790732       0.659590063192
62 1       3.321411441171       2.949714252799       3.464632502935       0.339893575843       0.311164311611      -0.659606109844
63 1       3.464636864056       3.321433858156       2.949724136001      -0.311156411045      -0.659609155503      -0.339892109157
64 1       3.464611846335       3.321392366889       2.949689646171       0.311171790732       0.659590063192      -0.339883336325
65 1       2.949714252799       3.464632502935       3.321411441171      -0.659606109844       0.339893575843       0.311164311611
66 1       2.949717232371       3.464639640139       3.321429943668       0.659587050152      -0.339899338128       0.311137798716
67 1       2.949724136001       3.464636864056       3.321433858156      -0.659609155503      -0.339892109157      -0.311156411045
68 1       2.949707366939       3.464644135170       3.321401462775       0.659591625922       0.339893291891      -0.311147044714
69 1       2.949680738854       3.464611802048       3.321384837069      -0.659568616610      -0.339887641889      -0.311156752263
70 1       2.949689646171       3.464611846335       3.321392366889       0.659590063192      -0.339883336325       0.311171790732
71 1       2.949691332212       3.464623039221       3.321409567815      -0.659570415551       0.339889786168       0.311143841227
72 1       2.949696237938       3.464608623905       3.321415933882       0.659585545753       0.339887145237      -0.311164689854
73 1       3.464639640139       3.321429943668       2.949717232371       0.311137798716       0.659587050152      -0.339899338128
74 1       3.464611802048       3.321384837069       2.949680738854      -0.311156752263      -0.659568616610      -0.339887641889
75 1       3.321429943668       2.949717232371       3.464639640139      -0.339899338128       0.311137798716       0.659587050152
76 1       3.321409567815       2.949691332212       3.464623039221       0.339889786168       0.311143841227      -0.659570415551
77 1       3.321401462776       2.949707366939       3.464644135170       0.339893291891      -0.311147044714       0.659591625922
78 1       3.321384837069       2.949680738854       3.464611802048      -0.339887641889      -0.311156752263      -0.659568616610
79 1       3.464608623905       3.321415933882       2.949696237938      -0.311164689854       0.659585545753       0.339887145237
80 1       3.464632502935       3.321411441171       2.949714252799       0.311164311611      -0.659606109844       0.339893575843
