ITEM: TIMESTEP
0
ITEM: NUMBER OF ATOMS
30
ITEM: BOX BOUNDS xy xz yz pp pp pp
-2.5723675259999998e+00 5.1447350519999997e+00 -2.5723675259999998e+00
0.0000000000000000e+00 4.4554716750000001e+00 0.0000000000000000e+00
0.0000000000000000e+00 1.3849995066000000e+01 0.0000000000000000e+00
ITEM: ATOMS id type c_pe_atom
1 2      -4.920773675116
2 2      -4.920768898563
3 2      -4.920780970574
4 2      -4.920788131497
5 2      -4.920769186806
6 2      -4.920772093771
7 2      -4.920768786926
8 2      -4.920769268060
9 2      -4.920779735844
10 2      -4.920772866377
11 2      -4.920763471233
12 2      -4.920775164972
13 1     -10.868244175196
14 1     -10.868233649704
15 1     -10.868239851191
16 1     -10.868244239648
17 1     -10.868254911819
18 1     -10.868250155732
19 1     -10.868248313778
20 1     -10.868252186938
21 1     -10.868239830259
22 1     -10.868245907406
23 1     -10.868238321667
24 1     -10.868247197306
25 1     -10.868232101258
26 1     -10.868239961421
27 1     -10.868246403528
28 1     -10.868246847451
29 1     -10.868244495915
30 1     -10.868239346578
