ITEM: TIMESTEP
0
ITEM: NUMBER OF ATOMS
30
ITEM: BOX BOUNDS xy xz yz pp pp pp
-2.5723675259999998e+00 5.1447350519999997e+00 -2.5723675259999998e+00
0.0000000000000000e+00 4.4554716750000001e+00 0.0000000000000000e+00
0.0000000000000000e+00 1.3849995066000000e+01 0.0000000000000000e+00
ITEM: ATOMS id type x y z fx fy fz
1 2       0.000000000000       0.000000000000       1.996330000000       0.000010342065       0.000013240339      -0.180563251390
2 2       0.000000000000       2.970310000000       0.312010000000      -0.000014048562       0.000095639121       0.180378231271
3 2       2.572370000000       1.485160000000       2.620330000000      -0.000036814384      -0.000023469685       0.180602467376
4 2       0.000000000000       2.970310000000       4.304670000000      -0.000007988276       0.000114188933      -0.180513902455
5 2       2.572370000000       1.485160000000       6.612990000000      -0.000075965910      -0.000095705712      -0.180459254599
6 2       0.000000000000       0.000000000000       4.928670000000      -0.000022451575      -0.000026565661       0.180581880993
7 2       0.000000000000       2.970310000000       7.237010000000       0.000073154152       0.000096714407       0.180456465686
8 2       0.000000000000       0.000000000000       8.921330000000       0.000064359572       0.000011879295      -0.180566085735
9 2       0.000000000000       2.970310000000      11.229660000000       0.000013060771       0.000124720365      -0.180457320373
10 2       2.572370000000       1.485160000000       9.545330000000      -0.000031013485      -0.000033568246       0.180585432601
11 2       0.000000000000       0.000000000000      11.853670000000      -0.000013589791      -0.000023218453       0.180568534653
12 2       2.572370000000       1.485160000000      13.537990000000      -0.000096379427      -0.000081122683      -0.180572419357
13 1      -0.779440000000       1.350040000000       3.462500000000      -0.070968057875       0.122746930665      -0.000046012054
14 1       1.558890000000       0.000000000000       3.462500000000       0.141791674039       0.000009184636      -0.000010817813
15 1       1.792920000000       3.105440000000       3.462500000000      -0.070824378677      -0.122867861132      -0.000037198042
16 1       3.351810000000       0.135120000000       1.154160000000       0.070963724847      -0.122765195003       0.000115862782
17 1       3.351810000000       2.835190000000       1.154160000000       0.070850126630       0.122879438474       0.000121602914
18 1       1.013480000000       1.485160000000       1.154160000000      -0.141785035356      -0.000136026495       0.000141838876
19 1       1.792930000000       2.835190000000       8.079160000000      -0.070902327019       0.122856949759       0.000090365855
20 1       4.131260000000       1.485160000000       8.079160000000       0.141743506879      -0.000134902854       0.000133499695
21 1       1.792930000000       0.135120000000       8.079160000000      -0.071008597459      -0.122748317485       0.000124101323
22 1       0.779440000000       1.620280000000       5.770840000000       0.070906401414      -0.122854519922      -0.000089540599
23 1       0.779440000000       4.320350000000       5.770840000000       0.070993421340       0.122761012087      -0.000111237853
24 1      -1.558890000000       2.970310000000       5.770840000000      -0.141762520530       0.000155264997      -0.000153050541
25 1      -0.779440000000       4.320350000000      12.695830000000      -0.070972319011       0.122801859854      -0.000006962320
26 1       1.558880000000       2.970310000000      12.695830000000       0.141883982117       0.000075502494      -0.000036017522
27 1      -0.779450000000       1.620280000000      12.695830000000      -0.070788016117      -0.122839143937      -0.000042139577
28 1      -1.792920000000       3.105440000000      10.387500000000       0.070816284665      -0.122861578588      -0.000070250493
29 1       0.779440000000       1.350040000000      10.387500000000       0.071029397377       0.122720583086      -0.000102025718
30 1       3.585850000000       0.000000000000      10.387500000000      -0.141829932416       0.000028087341      -0.000062797585
