30
Config_type=bulk_alpha_phase Weight=1.0 Lattice="5.144735052 0.000000000 0.000000000 -2.572367526 4.455471675 0.000000000 0.000000000 0.000000000 13.849995066" Energy=-254.77858660 Virial="-17.55997 -0.00002 0.00000 -0.00002 -17.56007 0.00001 0.00000 0.00001 -15.35627" pbc="T T T" Properties=species:S:1:pos:R:3:forces:R:3
Ga	      0.00000      0.00000      1.99633         0.000006      0.000012     -0.000974
Ga	     -0.00000      2.97031      0.31201         0.000002      0.000084      0.000811
Ga	      2.57237      1.48516      2.62033        -0.000028     -0.000037      0.001047
Ga	     -0.00000      2.97031      4.30467        -0.000003      0.000082     -0.000955
Ga	      2.57237      1.48516      6.61299        -0.000049     -0.000068     -0.000902
Ga	      0.00000      0.00000      4.92867        -0.000013     -0.000018      0.000989
Ga	     -0.00000      2.97031      7.23701         0.000041      0.000074      0.000887
Ga	      0.00000      0.00000      8.92133         0.000039      0.000009     -0.000983
Ga	     -0.00000      2.97031     11.22966         0.000012      0.000095     -0.000894
Ga	      2.57237      1.48516      9.54533        -0.000027     -0.000031      0.001019
Ga	      0.00000      0.00000     11.85367        -0.000003     -0.000015      0.000980
Ga	      2.57237      1.48516     13.53799        -0.000063     -0.000075     -0.001009
O	     -0.77944      1.35004      3.46250        -0.000949      0.001519     -0.000037
O	      1.55889      0.00000      3.46250         0.001772      0.000008     -0.000014
O	      1.79292      3.10544      3.46250        -0.000834     -0.001609     -0.000030
O	      3.35181      0.13512      1.15416         0.000939     -0.001531      0.000094
O	      3.35181      2.83519      1.15416         0.000883      0.001612      0.000091
O	      1.01348      1.48516      1.15416        -0.001807     -0.000088      0.000105
O	      1.79293      2.83519      8.07916        -0.000902      0.001626      0.000096
O	      4.13126      1.48516      8.07916         0.001787     -0.000100      0.000113
O	      1.79293      0.13512      8.07916        -0.001007     -0.001536      0.000115
O	      0.77944      1.62028      5.77084         0.000916     -0.001611     -0.000117
O	      0.77944      4.32035      5.77084         0.000982      0.001548     -0.000121
O	     -1.55889      2.97031      5.77084        -0.001800      0.000108     -0.000157
O	     -0.77944      4.32035     12.69583        -0.000959      0.001570      0.000026
O	      1.55888      2.97031     12.69583         0.001879      0.000043      0.000011
O	     -0.77945      1.62028     12.69583        -0.000831     -0.001589      0.000013
O	     -1.79292      3.10544     10.38750         0.000829     -0.001589     -0.000061
O	      0.77944      1.35004     10.38750         0.000983      0.001487     -0.000077
O	      3.58585      0.00000     10.38750        -0.001795      0.000018     -0.000068
