ITEM: TIMESTEP
0
ITEM: NUMBER OF ATOMS
80
ITEM: BOX BOUNDS pp pp pp
0.0000000000000000e+00 9.4674102219999998e+00
0.0000000000000000e+00 9.4674102219999998e+00
0.0000000000000000e+00 9.4674102219999998e+00
ITEM: ATOMS id type c_pe_atom
1 2      -5.354361865319
2 2      -5.222407117000
3 2      -5.222401817208
4 2      -5.222407711001
5 2      -5.222401817208
6 2      -5.222403477945
7 2      -5.222407711001
8 2      -5.354361865319
9 2      -5.354363214817
10 2      -5.354361865319
11 2      -5.222403477945
12 2      -5.222407711001
13 2      -5.222407117000
14 2      -5.222403477945
15 2      -5.222407117000
16 2      -5.222401817208
17 2      -5.354360516028
18 2      -5.222402937399
19 2      -5.222407786911
20 2      -5.222402343629
21 2      -5.222407786911
22 2      -5.222406125967
23 2      -5.222402343629
24 2      -5.354360516028
25 2      -5.354359166845
26 2      -5.354360516028
27 2      -5.222406125967
28 2      -5.222402343629
29 2      -5.222402937399
30 2      -5.222406125967
31 2      -5.222402937399
32 2      -5.222407786911
33 1     -10.656567809700
34 1     -10.656552434545
35 1     -10.656573502580
36 1     -10.656559702993
37 1     -10.656563792118
38 1     -10.656568257351
39 1     -10.656573502580
40 1     -10.656563792118
41 1     -10.656568257351
42 1     -10.656551610219
43 1     -10.656573502580
44 1     -10.656567809700
45 1     -10.656548720362
46 1     -10.656563792118
47 1     -10.656552434545
48 1     -10.656559702993
49 1     -10.656551610219
50 1     -10.656548720362
51 1     -10.656551610219
52 1     -10.656552434545
53 1     -10.656567809700
54 1     -10.656548720362
55 1     -10.656559702993
56 1     -10.656568257351
57 1     -10.656561986872
58 1     -10.656566438675
59 1     -10.656553886497
60 1     -10.656562427341
61 1     -10.656564002841
62 1     -10.656564796557
63 1     -10.656553886497
64 1     -10.656564002841
65 1     -10.656564796557
66 1     -10.656572521677
67 1     -10.656553886497
68 1     -10.656561986872
69 1     -10.656575817036
70 1     -10.656564002841
71 1     -10.656566438675
72 1     -10.656562427341
73 1     -10.656572521677
74 1     -10.656575817036
75 1     -10.656572521677
76 1     -10.656566438675
77 1     -10.656561986872
78 1     -10.656575817036
79 1     -10.656562427341
80 1     -10.656564796557
