80
Config_type=bulk_delta_phase Weight=1.0 Lattice="9.467410222 0.000000000 0.000000000 0.000000000 9.467410222 0.000000000 0.000000000 0.000000000 9.467410222" Energy=-680.10516460 Virial="-16.76709 0.00007 0.00009 0.00007 -16.76708 0.00000 0.00009 0.00000 -16.76703" pbc="T T T" Properties=species:S:1:pos:R:3:forces:R:3
Ga	      7.10056      2.36685      2.36685        -0.000061      0.000133      0.000134
Ga	      7.10056      4.39283      4.73371        -0.000104      0.002053     -0.000114
Ga	      0.00000      7.10056      0.34088        -0.000011     -0.000076     -0.002103
Ga	      0.00000      2.36685      4.39283        -0.000016      0.000111      0.002061
Ga	      0.34088      0.00000      7.10056        -0.002105     -0.000009     -0.000083
Ga	      0.34088      4.73371      2.36685        -0.002085     -0.000120      0.000136
Ga	      2.36685      4.39283      0.00000         0.000111      0.002064     -0.000017
Ga	      2.36685      7.10056      2.36685         0.000136     -0.000058      0.000141
Ga	      2.36685      2.36685      2.36685         0.000079      0.000076      0.000075
Ga	      2.36685      2.36685      7.10056         0.000135      0.000140     -0.000058
Ga	      2.36685      0.34088      4.73371         0.000134     -0.002088     -0.000120
Ga	      4.39283      0.00000      2.36685         0.002065     -0.000010      0.000112
Ga	      4.39283      4.73371      7.10056         0.002050     -0.000113     -0.000110
Ga	      4.73371      2.36685      0.34088        -0.000119      0.000130     -0.002085
Ga	      4.73371      7.10056      4.39283        -0.000112     -0.000105      0.002049
Ga	      7.10056      0.34088      0.00000        -0.000080     -0.002103     -0.000006
Ga	      2.36685      7.10056      7.10056         0.000084     -0.000105     -0.000093
Ga	      2.36685      9.12653      0.00000         0.000112      0.002129      0.000036
Ga	      4.73371      2.36685      5.07458        -0.000070      0.000095     -0.002108
Ga	      4.73371      7.10056      9.12653        -0.000072     -0.000063      0.002109
Ga	      5.07458      4.73371      2.36685        -0.002114     -0.000065      0.000096
Ga	      5.07458      0.00000      7.10056        -0.002126      0.000028     -0.000084
Ga	      7.10056      9.12653      4.73371        -0.000064      0.002107     -0.000072
Ga	      7.10056      2.36685      7.10056        -0.000096      0.000084     -0.000100
Ga	      7.10056      7.10056      7.10056        -0.000063     -0.000063     -0.000069
Ga	      7.10056      7.10056      2.36685        -0.000103     -0.000088      0.000091
Ga	      7.10056      5.07458      0.00000        -0.000081     -0.002127      0.000030
Ga	      9.12653      4.73371      7.10056         0.002111     -0.000065     -0.000062
Ga	      9.12653      0.00000      2.36685         0.002125      0.000035      0.000111
Ga	      0.00000      7.10056      5.07458         0.000027     -0.000082     -0.002129
Ga	      0.00000      2.36685      9.12653         0.000035      0.000114      0.002127
Ga	      2.36685      5.07458      4.73371         0.000090     -0.002107     -0.000065
O	      8.38718      5.79252      1.49818         0.004257      0.003587     -0.000543
O	      8.38718      3.67489      3.23553         0.004350     -0.003607      0.000436
O	      8.40859      1.49818      1.08023        -0.003493     -0.000501     -0.004316
O	      8.40859      3.23553      5.81394        -0.003489      0.000400     -0.004353
O	      1.05882      3.23553      1.08023         0.003505      0.000458     -0.004346
O	      1.05882      1.49818      5.81394         0.003500     -0.000502     -0.004358
O	      1.08023      8.40859      1.49818        -0.004324     -0.003499     -0.000480
O	      1.08023      1.05882      3.23553        -0.004344      0.003504      0.000455
O	      1.49818      5.81394      1.05882        -0.000494     -0.004362      0.003501
O	      1.49818      3.65347      3.67489        -0.000567      0.004324     -0.003619
O	      1.49818      1.08023      8.40859        -0.000515     -0.004288     -0.003514
O	      1.49818      8.38718      5.79252        -0.000521      0.004285      0.003607
O	      3.23553      3.65347      5.79252         0.000461      0.004319      0.003649
O	      3.23553      1.08023      1.05882         0.000427     -0.004319      0.003512
O	      3.23553      8.38718      3.67489         0.000410      0.004333     -0.003589
O	      3.23553      5.81394      8.40859         0.000427     -0.004342     -0.003478
O	      3.65347      3.67489      1.49818         0.004306     -0.003589     -0.000543
O	      3.65347      5.79252      3.23553         0.004318      0.003633      0.000438
O	      3.67489      1.49818      3.65347        -0.003626     -0.000544      0.004346
O	      3.67489      3.23553      8.38718        -0.003633      0.000462      0.004317
O	      5.79252      1.49818      8.38718         0.003631     -0.000546      0.004248
O	      5.79252      3.23553      3.65347         0.003642      0.000456      0.004313
O	      5.81394      8.40859      3.23553        -0.004311     -0.003506      0.000419
O	      5.81394      1.05882      1.49818        -0.004307      0.003501     -0.000503
O	      3.65347      1.05882      6.23188         0.004355      0.003485     -0.000415
O	      3.65347      8.40859      7.96923         0.004382     -0.003515      0.000491
O	      3.67489      6.23188      5.81394        -0.003610     -0.000433     -0.004302
O	      3.67489      7.96923      1.08023        -0.003575      0.000481     -0.004317
O	      5.79252      7.96923      5.81394         0.003645      0.000541     -0.004254
O	      5.79252      6.23188      1.08023         0.003653     -0.000451     -0.004350
O	      5.81394      3.67489      6.23188        -0.004320     -0.003607     -0.000416
O	      5.81394      5.79252      7.96923        -0.004266      0.003632      0.000565
O	      6.23188      1.08023      5.79252        -0.000444     -0.004315      0.003654
O	      6.23188      8.38718      8.40859        -0.000437      0.004306     -0.003525
O	      6.23188      5.81394      3.67489        -0.000416     -0.004318     -0.003618
O	      6.23188      3.65347      1.05882        -0.000380      0.004402      0.003476
O	      7.96923      8.38718      1.05882         0.000499      0.004311      0.003512
O	      7.96923      5.81394      5.79252         0.000524     -0.004261      0.003632
O	      7.96923      3.65347      8.40859         0.000475      0.004373     -0.003464
O	      7.96923      1.08023      3.67489         0.000536     -0.004295     -0.003597
O	      8.38718      8.40859      6.23188         0.004315     -0.003529     -0.000421
O	      8.38718      1.05882      7.96923         0.004309      0.003511      0.000504
O	      8.40859      6.23188      8.38718        -0.003560     -0.000440      0.004338
O	      8.40859      7.96923      3.65347        -0.003499      0.000499      0.004348
O	      1.05882      6.23188      3.65347         0.003485     -0.000424      0.004346
O	      1.05882      7.96923      8.38718         0.003498      0.000491      0.004286
O	      1.08023      3.67489      7.96923        -0.004285     -0.003606      0.000543
O	      1.08023      5.79252      6.23188        -0.004309      0.003650     -0.000445
