ITEM: TIMESTEP
0
ITEM: NUMBER OF ATOMS
30
ITEM: BOX BOUNDS xy xz yz pp pp pp
-2.5166666539999998e+00 5.0333333089999996e+00 -2.5166666539999998e+00
0.0000000000000000e+00 4.3589949260000003e+00 0.0000000000000000e+00
0.0000000000000000e+00 1.3550093598000000e+01 0.0000000000000000e+00
ITEM: ATOMS id type c_pe_atom
1 2      -4.577808155738
2 2      -4.577798902357
3 2      -4.577818937773
4 2      -4.577814042629
5 2      -4.577793129697
6 2      -4.577806386187
7 2      -4.577802128344
8 2      -4.577801788100
9 2      -4.577807655708
10 2      -4.577808987142
11 2      -4.577804477734
12 2      -4.577798185849
13 1     -11.114432648577
14 1     -11.114431511853
15 1     -11.114430140765
16 1     -11.114434550054
17 1     -11.114433811624
18 1     -11.114425846493
19 1     -11.114429516101
20 1     -11.114431727764
21 1     -11.114428411179
22 1     -11.114430261730
23 1     -11.114437438514
24 1     -11.114435230650
25 1     -11.114432222251
26 1     -11.114431893688
27 1     -11.114433887187
28 1     -11.114433507881
29 1     -11.114429017455
30 1     -11.114436171233
