ITEM: TIMESTEP
0
ITEM: NUMBER OF ATOMS
30
ITEM: BOX BOUNDS xy xz yz pp pp pp
-2.5166666539999998e+00 5.0333333089999996e+00 -2.5166666539999998e+00
0.0000000000000000e+00 4.3589949260000003e+00 0.0000000000000000e+00
0.0000000000000000e+00 1.3550093598000000e+01 0.0000000000000000e+00
ITEM: ATOMS id type x y z fx fy fz
1 2       0.000000000000       0.000000000000       1.953100000000       0.000007239640       0.000026703726      -0.084235039594
2 2       0.000000000000       2.906000000000       0.305250000000      -0.000010705162      -0.000087656981       0.084171136512
3 2       2.516670000000       1.453000000000       2.563590000000      -0.000111437739      -0.000035652464       0.084194083442
4 2       0.000000000000       2.906000000000       4.211450000000      -0.000028245023      -0.000083817543      -0.084219318373
5 2       2.516670000000       1.453000000000       6.469790000000      -0.000102381298       0.000021627718      -0.084063556410
6 2       0.000000000000       0.000000000000       4.821950000000      -0.000033894393       0.000036368578       0.084193390566
7 2       0.000000000000       2.906000000000       7.080300000000       0.000016820051      -0.000055098925       0.084217758808
8 2       0.000000000000       0.000000000000       8.728150000000       0.000011924996      -0.000003366393      -0.084252951273
9 2       0.000000000000       2.906000000000      10.986500000000      -0.000005013566      -0.000079502200      -0.084241601309
10 2       2.516670000000       1.453000000000       9.338640000000      -0.000051541099      -0.000040796113       0.084146676731
11 2       0.000000000000       0.000000000000      11.596990000000      -0.000034278659       0.000064415268       0.084231080196
12 2       2.516670000000       1.453000000000      13.244840000000      -0.000108549135      -0.000009744031      -0.084183188001
13 1       4.270760000000       1.320800000000       3.387520000000      -0.053703021629       0.093325956455       0.000100314862
14 1       1.525130000000       0.000000000000       3.387520000000       0.107689138482       0.000020522219       0.000036930670
15 1       1.754100000000       3.038190000000       3.387520000000      -0.053859096337      -0.093231121313       0.000073246688
16 1       3.279230000000       0.132190000000       1.129170000000       0.053932142412      -0.093149676564       0.000065218946
17 1       3.279230000000       2.773800000000       1.129170000000       0.053872500856       0.093285271919       0.000036209819
18 1       0.991540000000       1.453000000000       1.129170000000      -0.107775727873      -0.000056524470       0.000042740394
19 1       1.754100000000       2.773800000000       7.904220000000      -0.053790825846       0.093275320589       0.000030357077
20 1       4.041800000000       1.453000000000       7.904220000000       0.107654890577      -0.000063010154       0.000039222679
21 1       1.754100000000       0.132190000000       7.904220000000      -0.053857815373      -0.093133009878       0.000046007016
22 1       0.762560000000       1.585200000000       5.645880000000       0.053866852372      -0.093349012960      -0.000119418391
23 1       0.762560000000       4.226800000000       5.645880000000       0.053987379379       0.093242095310      -0.000153262840
24 1      -1.525130000000       2.906000000000       5.645880000000      -0.107726738113       0.000040317819      -0.000127118018
25 1      -0.762570000000       4.226800000000      12.420920000000      -0.053812269372       0.093288723124      -0.000007487949
26 1       1.525130000000       2.906000000000      12.420920000000       0.107686738827      -0.000003109567      -0.000029325701
27 1      -0.762570000000       1.585200000000      12.420920000000      -0.053728720483      -0.093357008296      -0.000077640883
28 1       3.279230000000       3.038190000000      10.162570000000       0.053900233603      -0.093237890817       0.000034241389
29 1       0.762570000000       1.320800000000      10.162570000000       0.053777772591       0.093333082376       0.000047321249
30 1       3.508200000000       0.000000000000      10.162570000000      -0.107663372686       0.000015593568       0.000003971699
