ITEM: TIMESTEP
0
ITEM: NUMBER OF ATOMS
20
ITEM: BOX BOUNDS xy xz yz pp pp pp
-1.4013845637169999e+00 1.2560130690333001e+01 0.0000000000000000e+00
0.0000000000000000e+00 3.1104067010000001e+00 -1.4013845637169999e+00
0.0000000000000000e+00 5.7583480333599999e+00 0.0000000000000000e+00
ITEM: ATOMS id type x y z fx fy fz
1 2       1.549178125661       1.555200000000       1.806517111177      -0.180498688043       0.000046160024      -0.172449886945
2 2       3.329498594392       0.000000000000       3.951829187103       0.180625774459      -0.000046160068       0.172453378955
3 2       0.010996135207       0.000000000000       4.575901544429      -0.021954260361      -0.000045013136      -0.022660086374
4 2       4.867690301249       1.555200000000       1.182447118490       0.021967875279       0.000045013145       0.022681981860
5 2       7.829249190625       0.000000000000       1.806517474506      -0.180624648157      -0.000046159724      -0.172425086298
6 2       9.609569659357       1.555200000000       3.951829550433       0.180490775149       0.000046160032       0.172472504973
7 2       6.291057483768       1.555200000000       4.575899543120      -0.022025049950       0.000045013168      -0.022641165530
8 2      11.147751649811       0.000000000000       1.182445117180       0.021959670367      -0.000045013133       0.022649409157
9 1       5.865439041718       0.000000000000       1.477702069832       0.076988740317      -0.000055825640       0.067566842379
10 1      -0.986752605262       1.555200000000       4.280646593087      -0.076993011655       0.000055825540      -0.067579930040
11 1       1.393067537626       0.000000000000       3.256308279588      -0.048980459593      -0.000019448361       0.028444702969
12 1       3.485618898830       1.555200000000       2.502040383331       0.048909424829       0.000019448438      -0.028467430983
13 1       2.998825808800       1.555200000000       5.129196831413      -0.014196249193       0.000045817732      -0.049292031342
14 1       1.879860627656       0.000000000000       0.629151831506       0.014144046753      -0.000045817663       0.049294419070
15 1      12.145500390280       1.555200000000       1.477700068522       0.076991284601       0.000055825538       0.067580471308
16 1       5.293308743299       0.000000000000       4.280644591777      -0.076990212864      -0.000055825701      -0.067556852133
17 1       7.673126521548       1.555200000000       3.256315994681      -0.048826906801       0.000019448087       0.028313287915
18 1       9.765680247391       0.000000000000       2.502038382021       0.048957052425      -0.000019448287      -0.028443535290
19 1       9.278887157361       0.000000000000       5.129194830103      -0.014133450907      -0.000045817696      -0.049284067009
20 1       8.159921976218       1.555200000000       0.629149830196       0.014188293344       0.000045817704       0.049343073359
