20
Config_type=bulk_beta_phase Weight=1.0 Lattice="12.203928713 0.000000000 -2.970018001 0.000000000 3.110406701 0.000000000 0.000000000 0.000000000 5.926419726" Energy=-170.62129040 Virial="-4.79680 0.00000 -0.10281 0.00000 -5.29779 -0.00000 -0.10281 -0.00000 -5.11610" pbc="T T T" Properties=species:S:1:pos:R:3:forces:R:3
Ga	      1.93242      1.55520      1.38896        -0.014838      0.000031      0.032316
Ga	      4.16954      0.00000      3.05245         0.014996     -0.000028     -0.032336
Ga	      1.09272      0.00000      4.44353        -0.026676     -0.000050     -0.005617
Ga	      5.00925      1.55520     -0.00212         0.026683      0.000054      0.005631
Ga	      8.03439      0.00000     -0.09605        -0.014992     -0.000028      0.032353
Ga	     10.27151      1.55520      1.56744         0.014836      0.000034     -0.032289
Ga	      7.19468      1.55520      2.95852        -0.026724      0.000056     -0.005581
Ga	     11.11121      0.00000     -1.48713         0.026677     -0.000051      0.005609
O	      6.04852      0.00000      0.04883        -0.005796     -0.000063      0.015807
O	      0.05345      1.55520      4.39258         0.005782      0.000059     -0.015818
O	      2.12356      0.00000      2.83455         0.007842     -0.000019     -0.000923
O	      3.97841      1.55520      1.60686        -0.007944      0.000015      0.000922
O	      4.12665      1.55520      4.27462         0.010757      0.000031     -0.005588
O	      1.97532      0.00000      0.16679        -0.010816     -0.000033      0.005591
O	     12.15048      1.55520     -1.43618        -0.005785      0.000060      0.015818
O	      6.15541      0.00000      2.90757         0.005798     -0.000063     -0.015799
O	      8.22552      1.55520      1.34955         0.007988      0.000014     -0.001091
O	     10.08037      0.00000      0.12185        -0.007864     -0.000017      0.000936
O	     10.22861      0.00000      2.78961         0.010831     -0.000032     -0.005585
O	      8.07728      1.55520     -1.31822        -0.010754      0.000030      0.005643
