ITEM: TIMESTEP
0
ITEM: NUMBER OF ATOMS
20
ITEM: BOX BOUNDS xy xz yz pp pp pp
-1.3680182642520000e+00 1.2261079958731001e+01 0.0000000000000000e+00
0.0000000000000000e+00 3.0363493980000000e+00 -1.3680182642520000e+00
0.0000000000000000e+00 5.6212445083949998e+00 0.0000000000000000e+00
ITEM: ATOMS id type x y z fx fy fz
1 2       1.521705227930       1.518170000000       1.762636313648       0.024389574201       0.000049398034       0.024213924098
2 2       3.240817656392       0.000000000000       3.858605545079      -0.024518000576      -0.000049396803      -0.024198680414
3 2       0.025968329046       0.000000000000       4.472767061751      -0.066398442536      -0.000070895154      -0.046247609703
4 2       4.736554555277       1.518170000000       1.148474796976       0.066306711141       0.000070897682       0.046354596293
5 2       7.652245313836       0.000000000000       1.762638030531       0.024411455821      -0.000049397005       0.024154291205
6 2       9.371357742298       1.518170000000       3.858607261962      -0.024517702022       0.000049396062      -0.024172795924
7 2       6.156498698549       1.518170000000       4.472766413995      -0.066244620514       0.000070899337      -0.046288610185
8 2      10.867094641182       0.000000000000       1.148476513859       0.066309540157      -0.000070897534       0.046350409308
9 1       5.743171711709       0.000000000000       1.428011030184      -0.048069294570      -0.000090733582      -0.016230903300
10 1      -0.980658543789       1.518170000000       4.193228463904       0.048231570839       0.000090730802       0.016296147177
11 1       1.345926856624       0.000000000000       3.152672114115       0.019177051944      -0.000032366775      -0.041471042283
12 1       3.416586311296       1.518170000000       2.468567379972      -0.019088428773       0.000032367052       0.041537967464
13 1       2.842485025131       1.518170000000       5.011026596897      -0.019493269123       0.000044189239       0.008911572666
14 1       1.920035494552       0.000000000000       0.610224978233       0.019450922764      -0.000044190775      -0.009155517232
15 1      11.873711797615       1.518170000000       1.428012747067      -0.048076219356       0.000090733164      -0.016239271832
16 1       5.149881542117       0.000000000000       4.193230180787       0.048133452387      -0.000090734486       0.016248624606
17 1       7.476466942530       1.518170000000       3.152673830998       0.019136812767       0.000032366181      -0.041495238219
18 1       9.547126397202       0.000000000000       2.468569096856      -0.019100930897      -0.000032367923       0.041519753867
19 1       8.973025111037       0.000000000000       5.011028313780      -0.019468475129      -0.000044190762       0.008903452752
20 1       8.050577945097       1.518170000000       0.610216978713       0.019428291475       0.000044193247      -0.008991070344
