ITEM: TIMESTEP
0
ITEM: NUMBER OF ATOMS
20
ITEM: BOX BOUNDS xy xz yz pp pp pp
-1.3680182642520000e+00 1.2261079958731001e+01 0.0000000000000000e+00
0.0000000000000000e+00 3.0363493980000000e+00 -1.3680182642520000e+00
0.0000000000000000e+00 5.6212445083949998e+00 0.0000000000000000e+00
ITEM: ATOMS id type v_vir_xx v_vir_yy v_vir_zz v_vir_xy v_vir_xz v_vir_yz
1 2      -2.651657985589      -1.441004079419      -4.818029588512      -0.000001282508      -0.017732246219      -0.000009241319
2 2      -2.651697523989      -1.440957145053      -4.817844340570      -0.000001283129      -0.017747432262      -0.000009239958
3 2      -4.285451392069      -3.605540994544      -2.401021744295       0.000035484648       0.054296555940       0.000008216989
4 2      -4.285459159919      -3.605612067652      -2.401082385129       0.000035483227       0.054230562501       0.000008216848
5 2      -2.651652806383      -1.440939536791      -4.817843718917       0.000001283286      -0.017763557330       0.000009239275
6 2      -2.651624573343      -1.440940120403      -4.817817078538       0.000001281804      -0.017757042660       0.000009239567
7 2      -4.285468283271      -3.605611140538      -2.401001331301      -0.000035483411       0.054242538954      -0.000008217806
8 2      -4.285430969631      -3.605589416516      -2.401052939166      -0.000035483443       0.054230963963      -0.000008216183
9 1       1.544871143909      -0.027129329591      -0.073040127887       0.000045953422       0.464033705292       0.000015147660
10 1       1.544849828070      -0.027034610051      -0.073022038855       0.000045953333       0.464064937192       0.000015150497
11 1       1.925908953014       1.177102461618       2.774494019538       0.000010718293      -0.063577990212       0.000006684149
12 1       1.925855837789       1.177097131425       2.774474922599       0.000010719833      -0.063596232255       0.000006682453
13 1       0.839827666908       1.146315625499       1.761728081693       0.000012294765      -0.428385441375      -0.000010945498
14 1       0.839850721457       1.146292821471       1.761842013575       0.000012292671      -0.428327384065      -0.000010945929
15 1       1.544864804010      -0.027147679338      -0.073049888691      -0.000045954462       0.464033595847      -0.000015147835
16 1       1.544852784280      -0.027090636986      -0.073006664560      -0.000045953308       0.464046649613      -0.000015148344
17 1       1.925902310188       1.177089811060       2.774460270997      -0.000010718197      -0.063605132997      -0.000006683817
18 1       1.925855498450       1.177088927659       2.774454392590      -0.000010718589      -0.063606968015      -0.000006682857
19 1       0.839780442807       1.146274619790       1.761687977923      -0.000012290366      -0.428373911574       0.000010946313
20 1       0.839797364858       1.146295553701       1.761768104334      -0.000012292623      -0.428344518195       0.000010946693
