ITEM: TIMESTEP
0
ITEM: NUMBER OF ATOMS
20
ITEM: BOX BOUNDS xy xz yz pp pp pp
-1.3680182642520000e+00 1.2261079958731001e+01 0.0000000000000000e+00
0.0000000000000000e+00 3.0363493980000000e+00 -1.3680182642520000e+00
0.0000000000000000e+00 5.6212445083949998e+00 0.0000000000000000e+00
ITEM: ATOMS id type c_pe_atom
1 2      -4.051650658240
2 2      -4.051669862563
3 2      -7.501207479018
4 2      -7.501126892477
5 2      -4.051702029458
6 2      -4.051688381450
7 2      -7.501178451795
8 2      -7.501117938017
9 1      -4.827210674996
10 1      -4.827155315759
11 1      -8.395839299639
12 1      -8.395880312029
13 1      -5.002724354623
14 1      -5.002697663246
15 1      -4.827222569076
16 1      -4.827099221100
17 1      -8.395856524571
18 1      -8.395845001899
19 1      -5.002697866848
20 1      -5.002743659254
