ITEM: TIMESTEP
0
ITEM: NUMBER OF ATOMS
20
ITEM: BOX BOUNDS xy xz yz pp pp pp
-1.4041650886670001e+00 1.2585051584328999e+01 0.0000000000000000e+00
0.0000000000000000e+00 3.1165781429999999e+00 -1.4041650886670001e+00
0.0000000000000000e+00 5.7697733267649998e+00 0.0000000000000000e+00
ITEM: ATOMS id type v_vir_xx v_vir_yy v_vir_zz v_vir_xy v_vir_xz v_vir_yz
1 2      -0.498807853389       0.015427491804      -2.672035164645       0.000001053973       0.606123828461       0.000001377549
2 2      -0.498814956260       0.015424174231      -2.672041969614       0.000001053455       0.606143267509       0.000001377373
3 2      -2.153489200474      -2.296873250274      -0.285611011792      -0.000005306661       0.052904018450      -0.000001892576
4 2      -2.153491474519      -2.296810834338      -0.285605430817      -0.000005306461       0.052916076598      -0.000001892541
5 2      -0.498808695271       0.015403226192      -2.672043374241      -0.000001053656       0.606132233707      -0.000001378958
6 2      -0.498732076547       0.015415305248      -2.672071053373      -0.000001053216       0.606135015085      -0.000001378723
7 2      -2.153497614123      -2.296871519289      -0.285600480416       0.000005306568       0.052870678953       0.000001892837
8 2      -2.153461618928      -2.296804890516      -0.285628901877       0.000005306097       0.052898378147       0.000001892691
9 1       1.705238659726       0.640474333925      -0.154697423208      -0.000008253496       0.464795749843      -0.000002466708
10 1       1.705235181342       0.640407671853      -0.154680599387      -0.000008254510       0.464797509017      -0.000002467561
11 1       1.656430885833       1.437264376779       2.948325902157      -0.000002766475      -0.346141823080      -0.000000010196
12 1       1.656499407316       1.437313854210       2.948367571879      -0.000002766697      -0.346137822991      -0.000000010113
13 1       0.775660765550       1.804350162143       1.725034127469      -0.000001457620      -0.687381400007       0.000002198277
14 1       0.775638611650       1.804326586340       1.725009961019      -0.000001457862      -0.687382709408       0.000002197813
15 1       1.705229614845       0.640480685593      -0.154671182386       0.000008253121       0.464830527685       0.000002466553
16 1       1.705210337032       0.640403029833      -0.154691567735       0.000008254392       0.464814729262       0.000002467455
17 1       1.656423594301       1.437231378615       2.948341042047       0.000002766735      -0.346133875681       0.000000010122
18 1       1.656448914244       1.437254923888       2.948363835381       0.000002766911      -0.346121726563       0.000000010069
19 1       0.775692095984       1.804368626568       1.725015739733       0.000001458319      -0.687374733246      -0.000002200217
20 1       0.775649158801       1.804312232549       1.724961559800       0.000001458999      -0.687390828288      -0.000002199729
