ITEM: TIMESTEP
0
ITEM: NUMBER OF ATOMS
30
ITEM: BOX BOUNDS xy xz yz pp pp pp
-2.5774312410000002e+00 5.1548624829999996e+00 -2.5774312410000002e+00
0.0000000000000000e+00 4.4642422890000004e+00 0.0000000000000000e+00
0.0000000000000000e+00 1.3877258835999999e+01 0.0000000000000000e+00
ITEM: ATOMS id type x y z fx fy fz
1 2       0.000000000000       0.000000000000       2.000260000000      -0.000002910569      -0.000010969615      -0.098015393779
2 2      -0.000000000000       2.976160000000       0.312620000000       0.000005126320       0.000019106922       0.097925994702
3 2       2.577430000000       1.488080000000       2.625490000000       0.000006375052       0.000012520849       0.097871009201
4 2      -0.000000000000       2.976160000000       4.313140000000      -0.000007795025       0.000004802268      -0.097935252577
5 2       2.577430000000       1.488080000000       6.626010000000       0.000018278720      -0.000001980768      -0.097869555264
6 2       0.000000000000       0.000000000000       4.938370000000      -0.000005821135       0.000003551344       0.097988701238
7 2      -0.000000000000       2.976160000000       7.251250000000      -0.000000913771       0.000013850134       0.097918395357
8 2       0.000000000000       0.000000000000       8.938890000000       0.000008253533      -0.000010830759      -0.098016240910
9 2      -0.000000000000       2.976160000000      11.251770000000       0.000016668413       0.000010956777      -0.097937157834
10 2       2.577430000000       1.488080000000       9.564120000000       0.000027094132       0.000006283623       0.097878099012
11 2       0.000000000000       0.000000000000      11.877000000000      -0.000013234833      -0.000001386601       0.097990604041
12 2       2.577430000000       1.488080000000      13.564640000000       0.000005774341       0.000006777819      -0.097875384216
13 1       4.373880000000       1.352690000000       3.469310000000       0.035484259337      -0.061278426704       0.000069575789
14 1       1.561960000000       0.000000000000       3.469310000000      -0.070883206542      -0.000027022597       0.000058811906
15 1       1.796450000000       3.111550000000       3.469310000000       0.035435594380       0.061306653752       0.000030534631
16 1       3.358410000000       0.135390000000       1.156430000000      -0.035395805051       0.061320928488       0.000078889713
17 1       3.358410000000       2.840770000000       1.156430000000      -0.035454256579      -0.061282727571       0.000114783739
18 1       1.015480000000       1.488080000000       1.156430000000       0.070801123857      -0.000027546195       0.000118440776
19 1       1.796450000000       2.840770000000       8.095060000000       0.035503666326      -0.061293149448       0.000131383235
20 1       4.139390000000       1.488080000000       8.095060000000      -0.070861176872      -0.000011050260       0.000102011482
21 1       1.796460000000       0.135390000000       8.095060000000       0.035335494446       0.061319738532       0.000102109545
22 1       0.780980000000       1.623470000000       5.782200000000      -0.035486142096       0.061310049687      -0.000166107290
23 1       0.780980000000       4.328860000000       5.782200000000      -0.035416337531      -0.061415440425      -0.000131910158
24 1      -1.561960000000       2.976160000000       5.782200000000       0.070885293645       0.000066564838      -0.000140184610
25 1      -0.780980000000       4.328860000000      12.720830000000       0.035390159809      -0.061411243071      -0.000141369020
26 1       1.561950000000       2.976160000000      12.720830000000      -0.070791048238       0.000064417626      -0.000151023295
27 1      -0.780980000000       1.623470000000      12.720830000000       0.035453664055       0.061314055155      -0.000151855447
28 1      -1.796450000000       3.111550000000      10.407940000000      -0.035426457415       0.061306109063       0.000032176230
29 1       0.780980000000       1.352690000000      10.407940000000      -0.035431981397      -0.061285753835       0.000061799573
30 1       3.592910000000       0.000000000000      10.407940000000       0.070800260688      -0.000028839029       0.000058114231
