ITEM: TIMESTEP
0
ITEM: NUMBER OF ATOMS
80
ITEM: BOX BOUNDS pp pp pp
0.0000000000000000e+00 9.3921226660000006e+00
0.0000000000000000e+00 9.3921226660000006e+00
0.0000000000000000e+00 9.3921226660000006e+00
ITEM: ATOMS id type x y z fx fy fz
1 2       7.044090000000       2.348030000000       2.348030000000       0.000012158446      -0.000000113629       0.000005244922
2 2       7.044090000000       4.360060000000       4.696060000000       0.000008036820      -0.025293915866      -0.000003173493
3 2       0.000000000000       7.044090000000       0.336000000000      -0.000019711188       0.000003514364       0.025264926957
4 2       0.000000000000       2.348030000000       4.360060000000      -0.000020119772       0.000003648996      -0.025293050127
5 2       0.336000000000       0.000000000000       7.044090000000       0.025264926957      -0.000019711188       0.000003514364
6 2       0.336000000000       4.696060000000       2.348030000000       0.025264120755      -0.000003582179      -0.000000874023
7 2       2.348030000000       4.360060000000       0.000000000000       0.000003648996      -0.025293050127      -0.000020119772
8 2       2.348030000000       7.044090000000       2.348030000000       0.000005244922       0.000012158446      -0.000000113629
9 2       2.348030000000       2.348030000000       2.348030000000      -0.000004516953      -0.000004516953      -0.000004516953
10 2       2.348030000000       2.348030000000       7.044090000000      -0.000000113629       0.000005244922       0.000012158446
11 2       2.348030000000       0.336000000000       4.696060000000      -0.000000874023       0.025264120755      -0.000003582179
12 2       4.360060000000       0.000000000000       2.348030000000      -0.025293050127      -0.000020119772       0.000003648996
13 2       4.360060000000       4.696060000000       7.044090000000      -0.025293915866      -0.000003173493       0.000008036820
14 2       4.696060000000       2.348030000000       0.336000000000      -0.000003582179      -0.000000874023       0.025264120755
15 2       4.696060000000       7.044090000000       4.360060000000      -0.000003173493       0.000008036820      -0.025293915866
16 2       7.044090000000       0.336000000000       0.000000000000       0.000003514364       0.025264926957      -0.000019711188
17 2       2.348030000000       7.044090000000       7.044090000000      -0.000007752895       0.000009220545       0.000005984599
18 2       2.348030000000       9.056120000000       0.000000000000      -0.000005405372      -0.025274614614      -0.000011988197
19 2       4.696060000000       2.348030000000       5.032060000000       0.000004549093      -0.000000882409       0.025292083346
20 2       4.696060000000       7.044090000000       9.056120000000       0.000004140422       0.000008045663      -0.025275480459
21 2       5.032060000000       4.696060000000       2.348030000000       0.025292083346       0.000004549093      -0.000000882409
22 2       5.032060000000       0.000000000000       7.044090000000       0.025292889384      -0.000012396785       0.000012568190
23 2       7.044090000000       9.056120000000       4.696060000000       0.000008045663      -0.025275480459       0.000004140422
24 2       7.044090000000       2.348030000000       7.044090000000       0.000005984599      -0.000007752895       0.000009220545
25 2       7.044090000000       7.044090000000       7.044090000000       0.000006799892       0.000006799892       0.000006799892
26 2       7.044090000000       7.044090000000       2.348030000000       0.000009220545       0.000005984599      -0.000007752895
27 2       7.044090000000       5.032060000000       0.000000000000       0.000012568190       0.025292889384      -0.000012396785
28 2       9.056120000000       4.696060000000       7.044090000000      -0.025275480459       0.000004140422       0.000008045663
29 2       9.056120000000       0.000000000000       2.348030000000      -0.025274614614      -0.000011988197      -0.000005405372
30 2       0.000000000000       7.044090000000       5.032060000000      -0.000012396785       0.000012568190       0.025292889384
31 2       0.000000000000       2.348030000000       9.056120000000      -0.000011988197      -0.000005405372      -0.025274614614
32 2       2.348030000000       5.032060000000       4.696060000000      -0.000000882409       0.025292083346       0.000004549093
33 1       8.311610000000       5.737090000000       1.483270000000      -0.014129634736       0.000120423317      -0.016526570748
34 1       8.311610000000       3.655030000000       3.212790000000      -0.014130332615      -0.000120466838       0.016515466736
35 1       8.351090000000       1.483270000000       1.080510000000      -0.000104026530      -0.016517061886       0.014129259271
36 1       8.351090000000       3.212790000000       5.776570000000      -0.000107685055       0.016512199938       0.014154370374
37 1       1.041030000000       3.212790000000       1.080510000000       0.000108691869       0.016508443154       0.014136500434
38 1       1.041030000000       1.483270000000       5.776570000000       0.000116363809      -0.016522920514       0.014158570633
39 1       1.080510000000       8.351090000000       1.483270000000       0.014129259271      -0.000104026530      -0.016517061886
40 1       1.080510000000       1.041030000000       3.212790000000       0.014136500434       0.000108691869       0.016508443154
41 1       1.483270000000       5.776570000000       1.041030000000      -0.016522920514       0.014158570633       0.000116363809
42 1       1.483270000000       3.615550000000       3.655030000000      -0.016527728643      -0.014156891313      -0.000125566689
43 1       1.483270000000       1.080510000000       8.351090000000      -0.016517061886       0.014129259271      -0.000104026530
44 1       1.483270000000       8.311610000000       5.737090000000      -0.016526570748      -0.014129634736       0.000120423317
45 1       3.212790000000       3.615550000000       5.737090000000       0.016519493182      -0.014159234175       0.000121509844
46 1       3.212790000000       1.080510000000       1.041030000000       0.016508443154       0.014136500434       0.000108691869
47 1       3.212790000000       8.311610000000       3.655030000000       0.016515466736      -0.014130332615      -0.000120466838
48 1       3.212790000000       5.776570000000       8.351090000000       0.016512199938       0.014154370374      -0.000107685055
49 1       3.615550000000       3.655030000000       1.483270000000      -0.014156891313      -0.000125566689      -0.016527728643
50 1       3.615550000000       5.737090000000       3.212790000000      -0.014159234175       0.000121509844       0.016519493182
51 1       3.655030000000       1.483270000000       3.615550000000      -0.000125566689      -0.016527728643      -0.014156891313
52 1       3.655030000000       3.212790000000       8.311610000000      -0.000120466838       0.016515466736      -0.014130332615
53 1       5.737090000000       1.483270000000       8.311610000000       0.000120423317      -0.016526570748      -0.014129634736
54 1       5.737090000000       3.212790000000       3.615550000000       0.000121509844       0.016519493182      -0.014159234175
55 1       5.776570000000       8.351090000000       3.212790000000       0.014154370374      -0.000107685055       0.016512199938
56 1       5.776570000000       1.041030000000       1.483270000000       0.014158570633       0.000116363809      -0.016522920514
57 1       3.615550000000       1.041030000000       6.179330000000      -0.014160144402       0.000114637202      -0.016513990781
58 1       3.615550000000       8.351090000000       7.908850000000      -0.014153829306      -0.000110006282       0.016522492331
59 1       3.655030000000       6.179330000000       5.776570000000      -0.000124765351      -0.016519788933       0.014156883801
60 1       3.655030000000       7.908850000000       1.080510000000      -0.000121140670       0.016524533668       0.014132698485
61 1       5.737090000000       7.908850000000       5.776570000000       0.000124756457       0.016530775829       0.014157112325
62 1       5.737090000000       6.179330000000       1.080510000000       0.000117049484      -0.016516415606       0.014134115563
63 1       5.776570000000       3.655030000000       6.179330000000       0.014156883801      -0.000124765351      -0.016519788933
64 1       5.776570000000       5.737090000000       7.908850000000       0.014157112325       0.000124756457       0.016530775829
65 1       6.179330000000       1.080510000000       5.737090000000      -0.016516415606       0.014134115563       0.000117049484
66 1       6.179330000000       8.311610000000       8.351090000000      -0.016510348194      -0.014126345678      -0.000104872666
67 1       6.179330000000       5.776570000000       3.655030000000      -0.016519788933       0.014156883801      -0.000124765351
68 1       6.179330000000       3.615550000000       1.041030000000      -0.016513990781      -0.014160144402       0.000114637202
69 1       7.908850000000       8.311610000000       1.041030000000       0.016520951286      -0.014131471386       0.000113585574
70 1       7.908850000000       5.776570000000       5.737090000000       0.016530775829       0.014157112325       0.000124756457
71 1       7.908850000000       3.615550000000       8.351090000000       0.016522492331      -0.014153829306      -0.000110006282
72 1       7.908850000000       1.080510000000       3.655030000000       0.016524533668       0.014132698485      -0.000121140670
73 1       8.311610000000       8.351090000000       6.179330000000      -0.014126345678      -0.000104872666      -0.016510348194
74 1       8.311610000000       1.041030000000       7.908850000000      -0.014131471386       0.000113585574       0.016520951286
75 1       8.351090000000       6.179330000000       8.311610000000      -0.000104872666      -0.016510348194      -0.014126345678
76 1       8.351090000000       7.908850000000       3.615550000000      -0.000110006282       0.016522492331      -0.014153829306
77 1       1.041030000000       6.179330000000       3.615550000000       0.000114637202      -0.016513990781      -0.014160144402
78 1       1.041030000000       7.908850000000       8.311610000000       0.000113585574       0.016520951286      -0.014131471386
79 1       1.080510000000       3.655030000000       7.908850000000       0.014132698485      -0.000121140670       0.016524533668
80 1       1.080510000000       5.737090000000       6.179330000000       0.014134115563       0.000117049484      -0.016516415606
