ITEM: TIMESTEP
0
ITEM: NUMBER OF ATOMS
40
ITEM: BOX BOUNDS pp pp pp
0.0000000000000000e+00 8.8901525059999997e+00
0.0000000000000000e+00 5.1770148819999999e+00
0.0000000000000000e+00 9.5127244070000003e+00
ITEM: ATOMS id type x y z fx fy fz
1 2       1.390510000000       1.604840000000       8.453390000000      -0.056872348272       0.008097317331      -0.024275358715
2 2       3.164730000000       4.193340000000       8.453400000000       0.056820380595       0.008139263057      -0.024339287138
3 2       5.859890000000       0.910430000000       7.599740000000       0.080797126892      -0.168548170959       0.009772704724
4 2       7.585490000000       3.498940000000       7.599740000000      -0.080801803724      -0.168592016915       0.009818679745
5 2       4.791510000000       3.507430000000       5.671790000000      -0.101186125802       0.054332981889       0.150072759473
6 2       1.492760000000       3.553730000000       5.797980000000      -0.090914869020       0.074901181686      -0.144571877611
7 2       3.062460000000       0.965220000000       5.797980000000       0.091054060491       0.074991033655      -0.144646780795
8 2       8.653870000000       0.918920000000       5.671790000000       0.101194824364       0.054352417294       0.150037790721
9 2       1.414560000000       1.677660000000       2.843410000000       0.081662116218       0.166189632485       0.010407482168
10 2       3.140680000000       4.266170000000       2.843410000000      -0.081772492810       0.166064354255       0.010434219448
11 2       5.834860000000       0.985440000000       3.697260000000      -0.055585900581      -0.017962695619      -0.026985303894
12 2       7.610520000000       3.573950000000       3.697260000000       0.055601519535      -0.018072641891      -0.027037838764
13 2       4.209330000000       1.669920000000       0.915850000000       0.102720327176      -0.053077771599       0.146735227693
14 2       5.937590000000       4.211630000000       1.041310000000      -0.090547928076      -0.073205942710      -0.142685512622
15 2       7.507790000000       1.623120000000       1.041300000000       0.090651168663      -0.073139367702      -0.142659192795
16 2       0.345900000000       4.258430000000       0.915850000000      -0.102711896305      -0.053052290894       0.146713853984
17 1       7.422450000000       1.798340000000       4.477140000000      -0.016287635110      -0.092950414574      -0.089430783655
18 1       0.044840000000       0.787220000000       0.058600000000       0.035892805632       0.072762905140       0.151937808260
19 1       7.449700000000       0.085500000000       7.028780000000       0.067924970835       0.090956523613      -0.182072319239
20 1       7.371540000000       5.018550000000       2.145580000000      -0.022095112345       0.096812832622       0.021345452232
21 1       6.022930000000       4.386850000000       4.477140000000       0.016317858522      -0.092983101765      -0.089418488230
22 1       7.540210000000       3.383190000000       9.492700000000       0.085792038494       0.017174198716       0.139486970859
23 1       5.995680000000       2.674010000000       7.028790000000      -0.067996904009       0.090949002310      -0.182124462573
24 1       6.073850000000       2.430040000000       2.145580000000       0.022063924771       0.096849103195       0.021352208866
25 1       1.459690000000       1.793300000000       4.736410000000      -0.086602841422      -0.016967956932       0.141942712715
26 1       2.977860000000       0.791090000000       9.233820000000      -0.015871546276       0.094473783584      -0.089815467028
27 1       1.630190000000       0.157300000000       6.902860000000       0.018302913321      -0.094693482192       0.020770328276
28 1       1.550810000000       5.090950000000       2.272600000000      -0.070922245224      -0.090150540008      -0.181455955533
29 1       0.065850000000       4.390210000000       4.815160000000      -0.034520084784      -0.071242952277       0.153048159633
30 1       1.577370000000       3.379600000000       9.233820000000       0.015926888758       0.094501117998      -0.089822175289
31 1       0.147880000000       2.463070000000       6.978990000000       0.081995704179      -0.088874813646      -0.030345492352
32 1       8.851980000000       2.713350000000       2.223040000000      -0.080834726673       0.091932281021      -0.033773401625
33 1       4.489380000000       1.801710000000       4.815160000000       0.034443403979      -0.071363782257       0.153088180443
34 1       5.905180000000       0.794680000000       9.492700000000      -0.085845414749       0.017147786213       0.139497830744
35 1       4.407340000000       5.051580000000       6.978990000000      -0.081937384148      -0.088913308421      -0.030334289192
36 1       4.593410000000       0.124840000000       2.223050000000       0.080853917910       0.091986756344      -0.033894627732
37 1       3.095540000000       4.381800000000       4.736410000000       0.086588371266      -0.016918134169       0.141979923986
38 1       4.510400000000       3.375720000000       0.058600000000      -0.035914446176       0.072822464209       0.151942586652
39 1       2.925030000000       2.745800000000       6.902870000000      -0.018323777313      -0.094628479640       0.020745218087
40 1       3.004430000000       2.502440000000       2.272600000000       0.070941161221      -0.090099072450      -0.181441483924
