ITEM: TIMESTEP
0
ITEM: NUMBER OF ATOMS
40
ITEM: BOX BOUNDS pp pp pp
0.0000000000000000e+00 8.8549439820000000e+00
0.0000000000000000e+00 5.1565118529999996e+00
0.0000000000000000e+00 9.4750502510000008e+00
ITEM: ATOMS id type x y z fx fy fz
1 2       1.386380000000       1.598070000000       8.417470000000       0.105235122960      -0.025889515242       0.031589250016
2 2       3.150810000000       4.176330000000       8.417470000000      -0.105172776296      -0.026046743834       0.031597354281
3 2       5.834810000000       0.908340000000       7.568450000000      -0.037205910328      -0.022024164380      -0.063511793091
4 2       7.557320000000       3.486600000000       7.568450000000       0.037177794886      -0.022178551280      -0.063483636074
5 2       4.770310000000       3.493350000000       5.649170000000       0.191146467628      -0.159657802703       0.135876089505
6 2       1.486730000000       3.539600000000       5.775040000000       0.096021031902      -0.083147821889       0.244932355995
7 2       3.050450000000       0.961350000000       5.775040000000      -0.095899372283      -0.083170929601       0.244925206991
8 2       8.621820000000       0.915090000000       5.649180000000      -0.191071998128      -0.159657035824       0.135703053668
9 2       1.407340000000       1.669670000000       2.830770000000      -0.037740388740       0.021800039355      -0.060053221255
10 2       3.129860000000       4.247930000000       2.830770000000       0.037671947933       0.021635697584      -0.060062219087
11 2       5.813110000000       0.980810000000       3.680050000000       0.103960071935       0.026384758845       0.033246351511
12 2       7.579030000000       3.559070000000       3.680040000000      -0.104095925172       0.026268526217       0.033277721427
13 2       4.194920000000       1.663660000000       0.912000000000      -0.185768710450       0.161370405295       0.136430562713
14 2       5.914030000000       4.195150000000       1.037120000000       0.098818564240       0.085064105963       0.247798297984
15 2       7.478110000000       1.616890000000       1.037120000000      -0.098971236066       0.085222524612       0.247883316449
16 2       0.342270000000       4.241920000000       0.912000000000       0.185812417161       0.161269927799       0.136502536856
17 1       7.393610000000       1.792160000000       4.462550000000       0.031874763948      -0.039767529479       0.014587843734
18 1       0.042040000000       0.784000000000       0.052590000000       0.098712202414      -0.083926789309       0.001743369382
19 1       7.422930000000       0.089060000000       7.001530000000       0.037623251190       0.102795897338      -0.136822228893
20 1       7.346350000000       5.003730000000       2.141740000000       0.068441802236      -0.111954631094      -0.112887605675
21 1       5.998520000000       4.370410000000       4.462550000000      -0.031736698422      -0.039664752708       0.014482053299
22 1       7.508300000000       3.371360000000       9.456190000000       0.020334139925      -0.021140430893      -0.142972560184
23 1       5.969200000000       2.667320000000       7.001530000000      -0.037621161254       0.102689968458      -0.136808812769
24 1       6.045790000000       2.425480000000       2.141750000000      -0.068340443462      -0.112053798184      -0.112976874953
25 1       1.455920000000       1.785040000000       4.718780000000      -0.019128721092       0.019794300628      -0.144430587680
26 1       2.966830000000       0.786740000000       9.200210000000       0.030534816789       0.038914120147       0.015269483681
27 1       1.619780000000       0.151630000000       6.880140000000      -0.069327321742       0.111524414297      -0.107008312402
28 1       1.541810000000       5.067150000000       2.264150000000      -0.038160533787      -0.101261857457      -0.136713104736
29 1       0.068030000000       4.373040000000       4.790350000000      -0.097037715525       0.082419373572       0.002152905378
30 1       1.570360000000       3.365000000000       9.200210000000      -0.030576604674       0.038842350683       0.015261307940
31 1       0.150420000000       2.454050000000       6.951790000000      -0.132422106388       0.039527270977       0.020793802402
32 1       8.813940000000       2.702000000000       2.214580000000       0.131724606637      -0.040515036981       0.020046256248
33 1       4.469160000000       1.794790000000       4.790360000000       0.097030834296       0.082228214716       0.002045935710
34 1       5.883830000000       0.793100000000       9.456190000000      -0.020279463117      -0.021077814604      -0.142949486938
35 1       4.386770000000       5.032300000000       6.951790000000       0.132339941473       0.039562891566       0.020756967443
36 1       4.578200000000       0.123740000000       2.214580000000      -0.131666358975      -0.040419934930       0.020071772383
37 1       3.081270000000       4.363290000000       4.718780000000       0.019099054539       0.019852206243      -0.144417334794
38 1       4.495150000000       3.362260000000       0.052590000000      -0.098691445770      -0.084009805484       0.001812992085
39 1       2.917400000000       2.729880000000       6.880150000000       0.069244181760       0.111562172203      -0.107038114901
40 1       2.995390000000       2.488890000000       2.264150000000       0.038111877819      -0.101164220622      -0.136650893650
