ITEM: TIMESTEP
0
ITEM: NUMBER OF ATOMS
40
ITEM: BOX BOUNDS pp pp pp
0.0000000000000000e+00 8.8549439820000000e+00
0.0000000000000000e+00 5.1565118529999996e+00
0.0000000000000000e+00 9.4750502510000008e+00
ITEM: ATOMS id type v_vir_xx v_vir_yy v_vir_zz v_vir_xy v_vir_xz v_vir_yz
1 2       0.000000000000       0.000000000000       0.000000000000       0.000000000000       0.000000000000       0.000000000000
2 2       0.000000000000       0.000000000000       0.000000000000       0.000000000000       0.000000000000       0.000000000000
3 2       0.000000000000       0.000000000000       0.000000000000       0.000000000000       0.000000000000       0.000000000000
4 2       0.000000000000       0.000000000000       0.000000000000       0.000000000000       0.000000000000       0.000000000000
5 2       0.000000000000       0.000000000000       0.000000000000       0.000000000000       0.000000000000       0.000000000000
6 2       0.000000000000       0.000000000000       0.000000000000       0.000000000000       0.000000000000       0.000000000000
7 2       0.000000000000       0.000000000000       0.000000000000       0.000000000000       0.000000000000       0.000000000000
8 2       0.000000000000       0.000000000000       0.000000000000       0.000000000000       0.000000000000       0.000000000000
9 2       0.000000000000       0.000000000000       0.000000000000       0.000000000000       0.000000000000       0.000000000000
10 2       0.000000000000       0.000000000000       0.000000000000       0.000000000000       0.000000000000       0.000000000000
11 2       0.000000000000       0.000000000000       0.000000000000       0.000000000000       0.000000000000       0.000000000000
12 2       0.000000000000       0.000000000000       0.000000000000       0.000000000000       0.000000000000       0.000000000000
13 2       0.000000000000       0.000000000000       0.000000000000       0.000000000000       0.000000000000       0.000000000000
14 2       0.000000000000       0.000000000000       0.000000000000       0.000000000000       0.000000000000       0.000000000000
15 2       0.000000000000       0.000000000000       0.000000000000       0.000000000000       0.000000000000       0.000000000000
16 2       0.000000000000       0.000000000000       0.000000000000       0.000000000000       0.000000000000       0.000000000000
17 1       0.000000000000       0.000000000000       0.000000000000       0.000000000000       0.000000000000       0.000000000000
18 1       0.000000000000       0.000000000000       0.000000000000       0.000000000000       0.000000000000       0.000000000000
19 1       0.000000000000       0.000000000000       0.000000000000       0.000000000000       0.000000000000       0.000000000000
20 1       0.000000000000       0.000000000000       0.000000000000       0.000000000000       0.000000000000       0.000000000000
21 1       0.000000000000       0.000000000000       0.000000000000       0.000000000000       0.000000000000       0.000000000000
22 1       0.000000000000       0.000000000000       0.000000000000       0.000000000000       0.000000000000       0.000000000000
23 1       0.000000000000       0.000000000000       0.000000000000       0.000000000000       0.000000000000       0.000000000000
24 1       0.000000000000       0.000000000000       0.000000000000       0.000000000000       0.000000000000       0.000000000000
25 1       0.000000000000       0.000000000000       0.000000000000       0.000000000000       0.000000000000       0.000000000000
26 1       0.000000000000       0.000000000000       0.000000000000       0.000000000000       0.000000000000       0.000000000000
27 1       0.000000000000       0.000000000000       0.000000000000       0.000000000000       0.000000000000       0.000000000000
28 1       0.000000000000       0.000000000000       0.000000000000       0.000000000000       0.000000000000       0.000000000000
29 1       0.000000000000       0.000000000000       0.000000000000       0.000000000000       0.000000000000       0.000000000000
30 1       0.000000000000       0.000000000000       0.000000000000       0.000000000000       0.000000000000       0.000000000000
31 1       0.000000000000       0.000000000000       0.000000000000       0.000000000000       0.000000000000       0.000000000000
32 1       0.000000000000       0.000000000000       0.000000000000       0.000000000000       0.000000000000       0.000000000000
33 1       0.000000000000       0.000000000000       0.000000000000       0.000000000000       0.000000000000       0.000000000000
34 1       0.000000000000       0.000000000000       0.000000000000       0.000000000000       0.000000000000       0.000000000000
35 1       0.000000000000       0.000000000000       0.000000000000       0.000000000000       0.000000000000       0.000000000000
36 1       0.000000000000       0.000000000000       0.000000000000       0.000000000000       0.000000000000       0.000000000000
37 1       0.000000000000       0.000000000000       0.000000000000       0.000000000000       0.000000000000       0.000000000000
38 1       0.000000000000       0.000000000000       0.000000000000       0.000000000000       0.000000000000       0.000000000000
39 1       0.000000000000       0.000000000000       0.000000000000       0.000000000000       0.000000000000       0.000000000000
40 1       0.000000000000       0.000000000000       0.000000000000       0.000000000000       0.000000000000       0.000000000000
