ITEM: TIMESTEP
0
ITEM: NUMBER OF ATOMS
160
ITEM: BOX BOUNDS pp pp pp
0.0000000000000000e+00 8.5162511260000002e+00
0.0000000000000000e+00 8.5162511260000002e+00
0.0000000000000000e+00 2.5548753377000001e+01
ITEM: ATOMS id type c_pe_atom
1 2      -4.880840072920
2 2      -4.706806825998
3 2      -4.703353825309
4 2      -4.852440942995
5 2      -4.839027394999
6 2      -4.904495463912
7 2      -4.756830183319
8 2      -4.692534889273
9 2      -4.727650781481
10 2      -4.709545128746
11 2      -4.679492663417
12 2      -4.838206709046
13 2      -4.888788265460
14 2      -4.827688860478
15 2      -4.698735916315
16 2      -4.712034298495
17 2      -4.770514219592
18 2      -4.898622744996
19 2      -4.755900358842
20 2      -4.712946172092
21 2      -5.193663689456
22 2      -5.161562675282
23 2      -5.344448527894
24 2      -5.008404617885
25 2      -5.148393789366
26 2      -5.436342907464
27 2      -5.410507267320
28 2      -4.966590153357
29 2      -5.394492539006
30 2      -5.272483437729
31 2      -5.144845292499
32 2      -5.131150892388
33 2      -5.122013119170
34 2      -5.081175138177
35 2      -5.106180939048
36 2      -5.025079907060
37 2      -5.264084922291
38 2      -5.100611639293
39 2      -5.401743714574
40 2      -5.418697123274
41 2      -5.138984096843
42 2      -5.220232456300
43 2      -5.145557149352
44 2      -5.112765650528
45 2      -5.087460710784
46 2      -5.064315546971
47 2      -5.136668421516
48 2      -5.279265943758
49 2      -5.132879693141
50 2      -5.420947412066
51 2      -5.433602288044
52 2      -5.111705542867
53 2      -5.010216569681
54 2      -5.110055654012
55 2      -5.112984646190
56 2      -5.075841622173
57 2      -5.147452927234
58 2      -5.140848243456
59 2      -5.107118936743
60 2      -5.403208451058
61 2      -5.080041620849
62 2      -5.036052455537
63 2      -5.034064216475
64 2      -5.056088652879
65 1     -10.812811179272
66 1     -10.880862036621
67 1     -10.806569928266
68 1     -10.834858478300
69 1     -10.798977469975
70 1     -10.661146679422
71 1     -10.802311977592
72 1     -10.555030787641
73 1     -10.758899504208
74 1     -10.548237257264
75 1     -10.769420821182
76 1     -10.747018314877
77 1     -10.955116374478
78 1     -10.780679384329
79 1     -10.777615255779
80 1     -10.683112772089
81 1     -10.753425096757
82 1     -10.852826950590
83 1     -10.734564332581
84 1     -10.774008236396
85 1     -10.984495969627
86 1     -10.835302989511
87 1     -10.855420475409
88 1     -10.762069612551
89 1     -10.764268104271
90 1     -10.811040174217
91 1     -10.554450039990
92 1     -10.865498714225
93 1     -10.778891621137
94 1     -10.839777410535
95 1     -10.679694648633
96 1     -10.671342455840
97 1     -10.664512887797
98 1     -10.660275508330
99 1     -10.771897134167
100 1     -10.790742012618
101 1     -10.843875738098
102 1     -10.543922585944
103 1     -10.510053633970
104 1     -10.755887675656
105 1     -10.552686944808
106 1     -10.764228803145
107 1     -10.820364687866
108 1     -10.737699667204
109 1     -10.788158937258
110 1     -10.902849081347
111 1     -10.841904988649
112 1     -10.773528557897
113 1     -10.967512319497
114 1     -10.844203902606
115 1     -10.802362093787
116 1     -10.787436199328
117 1     -10.800429791438
118 1     -10.852603739688
119 1     -10.806781551586
120 1     -10.966298260039
121 1     -10.779731598071
122 1     -10.770324969185
123 1     -10.683105010361
124 1     -10.773272564240
125 1     -10.756585563033
126 1     -10.872914162816
127 1     -10.864992175996
128 1     -10.842637890145
129 1     -10.783131068995
130 1     -10.796927088462
131 1     -10.943141613902
132 1     -10.868165245041
133 1     -10.779959354753
134 1     -10.686201849235
135 1     -10.850995102234
136 1     -10.937830921767
137 1     -10.679735402674
138 1     -10.846668986620
139 1     -10.882003599434
140 1     -10.666536933326
141 1     -10.824515671531
142 1     -10.835029479170
143 1     -10.694967569050
144 1     -10.817335540065
145 1     -10.778705178332
146 1     -10.506872894751
147 1     -10.855907182677
148 1     -10.703491790633
149 1     -10.906253388042
150 1     -10.772639995259
151 1     -10.791889140867
152 1     -10.723324510310
153 1     -10.900461830604
154 1     -10.959472902097
155 1     -10.745253394087
156 1     -10.738032525950
157 1     -10.840619335149
158 1     -10.951984210138
159 1     -10.553337722143
160 1     -10.712065361464
