ITEM: TIMESTEP
0
ITEM: NUMBER OF ATOMS
160
ITEM: BOX BOUNDS pp pp pp
0.0000000000000000e+00 8.5162511260000002e+00
0.0000000000000000e+00 8.5162511260000002e+00
0.0000000000000000e+00 2.5548753377000001e+01
ITEM: ATOMS id type x y z fx fy fz
1 2       1.234510000000       5.287700000000      22.477060000000      -0.226536209666       0.133321207660      -0.049265309622
2 2       5.293310000000       0.859900000000      13.904120000000      -0.111999340114      -0.035278862864      -0.012280391874
3 2       7.286670000000       7.532780000000       7.511510000000      -0.163118221615      -0.006924631939      -0.036165163243
4 2       7.414330000000       7.254670000000      16.035180000000      -0.022049805390       0.085684123941      -0.022134257892
5 2       5.316900000000       5.331230000000       0.998240000000       0.229367992029       0.290018264026       0.057553844003
6 2       3.084710000000       3.255740000000       7.326720000000       0.058470385962      -0.068408429126      -0.022405987888
7 2       0.970760000000       1.063070000000       1.097810000000      -0.097060200101       0.124878930707      -0.055559969849
8 2       5.260180000000       1.040170000000       5.332270000000       0.015046472295       0.215368336105       0.002951920329
9 2       3.238540000000       3.022280000000      15.931790000000      -0.030673621013      -0.037036653864       0.056483242998
10 2       5.470680000000       1.140650000000      22.286040000000      -0.078417185347       0.103388748784       0.047074121426
11 2       3.199430000000       7.380450000000      11.710580000000      -0.115820700042      -0.047136304278      -0.004605626973
12 2       7.552430000000       3.256230000000      20.149630000000       0.100606425355      -0.379097566347       0.003576399463
13 2       1.038100000000       5.184990000000      13.713380000000      -0.045494472758       0.197837451851      -0.056041750135
14 2       7.451870000000       3.282060000000       3.259100000000      -0.245456804319      -0.286341934227      -0.078155625579
15 2       5.184360000000       5.415530000000       9.535560000000      -0.020321692573       0.161949129960       0.027730788602
16 2       7.485140000000       7.574140000000      24.509790000000      -0.041460157795      -0.228151677672       0.019781429727
17 2       3.247150000000       7.575020000000      20.258470000000      -0.034379184623      -0.033884889686      -0.004013799121
18 2       0.933270000000       1.092900000000       9.692210000000       0.057726598901      -0.030086325480      -0.006637387093
19 2       3.278790000000       7.550690000000       3.162740000000       0.087103181805      -0.091739513489       0.019231048721
20 2       1.201110000000       1.044260000000      18.121510000000      -0.166655175470       0.061486445353       0.010391770296
21 2       4.008440000000       0.181950000000       8.527520000000       0.190267264613      -0.154348933522       0.000798054952
22 2       6.238090000000       6.225170000000      12.752310000000       0.073019181175      -0.049281200561      -0.045045303589
23 2       2.195070000000       2.156910000000      21.307080000000       0.071288962220       0.068438583996       0.075783350122
24 2       6.520210000000       6.415290000000      21.274570000000       0.034234456540      -0.064718649565       0.055785145119
25 2       2.002550000000       6.519730000000       8.429810000000      -0.033222930400       0.019676044539       0.041863507423
26 2       8.457570000000       2.102870000000       6.346130000000       0.280206478761       0.227853839487      -0.253287139369
27 2       2.029180000000       2.136250000000       4.292880000000      -0.156083244721       0.278833412276       0.073031284245
28 2       0.065240000000       2.051490000000      14.881350000000       0.027987045232       0.065083602492       0.068096011503
29 2       0.157490000000       6.316780000000      19.112980000000      -0.082582251892      -0.135677631115      -0.148202403969
30 2       6.376720000000       0.055340000000       2.140740000000       0.039077215545      -0.029597567698      -0.013480387846
31 2       6.198090000000       0.071500000000      10.705760000000       0.085268881311      -0.070604556606       0.051116746715
32 2       4.232000000000       2.233800000000      19.114350000000       0.152080297754      -0.101304919905      -0.122461775272
33 2       6.522110000000       8.496450000000      19.179030000000       0.087985663019       0.086096543569      -0.084090432112
34 2       6.465510000000       2.069670000000      17.003230000000       0.021501739640      -0.020020860418       0.186048620741
35 2       0.164470000000       2.093770000000      23.480420000000      -0.110350112164       0.128311439937       0.099302098308
36 2       2.078400000000       8.306510000000      14.993120000000      -0.042169942495       0.021702903629      -0.101347779603
37 2       4.074900000000       6.138020000000      14.909890000000       0.154095007155       0.135833701835       0.102726300489
38 2       6.335760000000       4.273290000000       6.426720000000      -0.035077115752      -0.033975115323      -0.162928146854
39 2       4.290130000000       6.484130000000      23.459470000000      -0.123666690576      -0.163005082184       0.212213046847
40 2       0.091820000000       4.255040000000      17.025470000000      -0.126999414674       0.070238979252       0.240880746554
41 2       2.125280000000       4.314200000000       2.128280000000      -0.030453715532      -0.028849473953      -0.010469450140
42 2       4.186720000000       4.387050000000      21.234070000000      -0.031629628487      -0.085396365785       0.019303424596
43 2       4.206520000000       8.325070000000      17.093090000000       0.094376136471       0.115382296977       0.140870247812
44 2       6.434190000000       4.308370000000      23.349370000000       0.047015815208      -0.024925789215       0.118326372284
45 2       8.454800000000       6.334720000000      10.610810000000       0.020960871707       0.029618557045       0.149902908898
46 2       8.505480000000       8.432660000000      12.808170000000       0.043190392195      -0.104055765519      -0.167055580355
47 2       0.012920000000       4.357220000000       0.051710000000      -0.073312333692       0.050197652243      -0.110216929220
48 2       6.310720000000       4.128790000000      14.867940000000       0.134350555187       0.013935872526      -0.052512340258
49 2       4.228340000000       4.254480000000       4.208190000000       0.077651784895      -0.033774388551       0.129117458173
50 2       2.156940000000       2.068860000000      12.707630000000      -0.211862255490       0.276896406327      -0.173404777864
51 2       2.123330000000       4.193160000000      10.665580000000      -0.194241121266      -0.236003463092       0.076879917146
52 2       0.039680000000       6.555630000000       2.231540000000      -0.000969009828       0.012371961536      -0.104391924216
53 2       0.208380000000       8.475130000000      21.393000000000      -0.074343489675      -0.087554615240      -0.149514872048
54 2       4.191520000000       2.057800000000       2.019970000000      -0.017598232574       0.007842617137       0.069973832545
55 2       6.311130000000       2.078950000000      25.499580000000       0.110259427274       0.107488193744      -0.081561114512
56 2       8.508970000000       4.196030000000       8.513830000000      -0.116204649680       0.092861716851      -0.023182419499
57 2       6.177100000000       2.196520000000       8.615300000000      -0.024498486132       0.043956889165      -0.108911902590
58 2       4.093290000000       6.534170000000       6.331000000000       0.081714173602      -0.115922650718      -0.101645055176
59 2       6.443550000000       6.538380000000       4.317850000000      -0.087185082098      -0.097028934665       0.067360733416
60 2       2.217580000000       6.488760000000      25.520820000000       0.158047637397      -0.262480011614      -0.107985635253
61 2       5.237100000000       3.167000000000      11.748800000000      -0.073282155843      -0.041440591236       0.009122753969
62 2       3.232100000000       1.077840000000      24.459720000000       0.069813774151      -0.054780282634       0.020672599243
63 2       3.205750000000       5.262890000000      18.086960000000      -0.074453586301       0.058207690443       0.034216633789
64 2       1.006030000000       7.535310000000       5.320880000000      -0.014771843624       0.041384684299       0.006260908168
65 1       2.159280000000       2.169290000000       2.148940000000       0.016164604102       0.099477264264      -0.051110470082
66 1       6.264690000000       6.330630000000       6.348280000000       0.038951965981       0.051818160297       0.040157531535
67 1       4.357900000000       8.433720000000       6.541830000000      -0.018791897521       0.089159903091      -0.023217039190
68 1       4.383450000000       0.132220000000       2.158670000000       0.180958389762      -0.030043697202      -0.025532121174
69 1       8.383650000000       6.519660000000       4.177660000000       0.056183420536      -0.037676821943       0.064872799178
70 1       0.042510000000       2.259630000000       4.353260000000       0.191829806089      -0.005749933521       0.206693690418
71 1       6.279350000000       4.222360000000       8.488480000000       0.297769398424      -0.053360159624       0.085869854512
72 1       1.906270000000       4.541550000000       0.268710000000       0.038429786842       0.201193971709      -0.063853165049
73 1       8.501020000000       4.432190000000       2.119680000000       0.209707030159       0.083832515529       0.014704641182
74 1       8.217650000000       4.057840000000       6.656700000000       0.035425593329      -0.179433378951      -0.049532605676
75 1       4.370940000000       2.092740000000       0.071530000000      -0.075889147299       0.023457548381      -0.029319781277
76 1       4.083630000000       6.477120000000       8.379090000000       0.004943071679       0.138777063577      -0.057930549031
77 1       2.143250000000       0.077720000000       4.245250000000       0.016484389115      -0.070840159506      -0.036675738096
78 1       6.228890000000       8.450300000000       4.155650000000       0.007939271978       0.075496450850      -0.026279619254
79 1       2.148630000000       6.549120000000       6.477060000000      -0.046704601697      -0.003860471269      -0.034216214690
80 1       6.328490000000       2.147600000000       2.067640000000       0.047703154311       0.081562154829       0.066338547140
81 1       4.260450000000       4.186600000000       2.135640000000      -0.212008206336      -0.115754416223       0.001181550939
82 1       4.292270000000       4.399870000000       6.264940000000      -0.167881914358       0.032864893842       0.081754797135
83 1       8.320920000000       2.135990000000       8.514730000000      -0.087413006715       0.051091032080      -0.012812391986
84 1       0.037800000000       6.411690000000       0.078520000000       0.137437294178       0.057873349612      -0.018673648621
85 1       8.377540000000       0.066250000000       6.408870000000       0.024256407154      -0.041877885910       0.008771588090
86 1       8.373860000000       8.484620000000       2.098180000000      -0.201595504687       0.028191439656       0.043040403173
87 1       4.304750000000       6.331220000000       4.314860000000      -0.085350770831       0.097134313256      -0.029117827686
88 1       4.193730000000       2.201470000000       4.186400000000      -0.071137839336      -0.080993405928       0.019260856405
89 1       6.361420000000       2.191350000000       6.450440000000      -0.028365225837      -0.065170761448       0.012755158631
90 1       2.085850000000       6.451860000000       2.105070000000       0.029071829207      -0.089587482175       0.082624721321
91 1       2.336680000000       4.085320000000       3.986410000000      -0.038393815787      -0.227778879853       0.072554821954
92 1       6.263050000000       4.394290000000       4.349570000000       0.124714557552       0.100062093380      -0.081083975525
93 1       6.515700000000       0.164980000000       0.116100000000       0.001446285317      -0.049542682216      -0.006997194259
94 1       2.093670000000       8.466020000000       8.712740000000       0.097355095069      -0.019724290251      -0.061847991628
95 1       6.427930000000       6.470650000000       2.193080000000      -0.067429045641      -0.068272861626      -0.022464797782
96 1       1.930680000000       2.244380000000       6.252670000000      -0.153207427733       0.004368597014      -0.048598608056
97 1       2.007500000000       2.207220000000      10.741140000000      -0.010686672145       0.130850205688       0.106196258089
98 1       6.312510000000       6.215520000000      14.831570000000      -0.151341736847      -0.005680996051       0.034550079481
99 1       4.180950000000       8.333310000000      15.049810000000       0.018888409372      -0.158989101131       0.080445419401
100 1       4.300110000000       8.314450000000      10.503680000000      -0.099544984613       0.026713405704       0.037555472661
101 1       8.367810000000       6.393400000000      12.667550000000       0.027617317985      -0.178679245565       0.079411513861
102 1       0.201150000000       1.792050000000      13.015700000000       0.237615669908       0.006931689003      -0.028090533220
103 1       6.683250000000       3.935630000000      16.748080000000       0.084321757221      -0.033936031056       0.065155385172
104 1       2.061300000000       4.380200000000       8.513840000000      -0.058478284170       0.080589842522       0.015162752555
105 1       0.155220000000       4.456770000000      10.371670000000       0.164194229712      -0.020594982728       0.070982456853
106 1       0.017630000000       4.082250000000      14.907030000000      -0.244270767030      -0.124483170267      -0.051814699591
107 1       4.227010000000       2.102630000000       8.321040000000       0.031128948922      -0.121226979007       0.068255436027
108 1       4.145510000000       6.405520000000      16.901350000000      -0.041873950615      -0.094164365920      -0.068282010985
109 1       2.069270000000       8.478710000000      12.825150000000       0.044566900882       0.016138560702       0.043506270855
110 1       6.441830000000       8.355570000000      12.723860000000      -0.001724966436       0.087277000991       0.058303213793
111 1       2.148070000000       6.368060000000      14.707410000000       0.116410173251       0.029067111710       0.062857533740
112 1       6.179490000000       2.019880000000      10.561280000000       0.007009898976       0.032892882925       0.044287424227
113 1       4.175180000000       4.306080000000      10.653830000000       0.051184454616       0.001196304330      -0.029997910513
114 1       4.351540000000       4.219940000000      15.032840000000       0.034075357945       0.040701406432      -0.016782576777
115 1       0.035240000000       2.060880000000      16.924230000000       0.061709305733       0.072162214588       0.077238741266
116 1       8.485180000000       6.418850000000       8.544350000000       0.042059866924      -0.291220598228      -0.069667255314
117 1       0.054840000000       8.381980000000      14.910680000000       0.125968477853       0.146337666838       0.007697942585
118 1       8.327950000000       8.386330000000      10.756730000000      -0.017089883578       0.177533569390      -0.063845550457
119 1       4.337980000000       6.487590000000      12.932200000000      -0.100768434180      -0.005649237982      -0.020511413095
120 1       4.228140000000       1.980680000000      12.828990000000       0.067907266768       0.017085475999       0.004529671353
121 1       6.481040000000       1.988220000000      14.932130000000       0.044723088598       0.158525752232      -0.058025188782
122 1       2.033720000000       6.304200000000      10.580470000000       0.053151464429       0.016032427351       0.037557259739
123 1       2.045420000000       4.060270000000      12.627610000000      -0.011240140314      -0.161748787078      -0.023013767421
124 1       6.263830000000       4.280300000000      12.904840000000       0.034211866928      -0.062089649180      -0.043465316365
125 1       6.223500000000       0.111030000000       8.657980000000      -0.132130660481      -0.010047265766       0.063556909886
126 1       2.274260000000       0.077750000000      16.926410000000      -0.013734443608      -0.041356295189      -0.034431242860
127 1       6.399870000000       6.418250000000      10.697140000000      -0.033430596190      -0.029864777287      -0.066572135812
128 1       2.140230000000       1.920140000000      14.824300000000      -0.036971332945      -0.067535861797      -0.063136402693
129 1       2.315450000000       2.009970000000      19.283750000000      -0.032457092159      -0.023048931661      -0.045515439183
130 1       6.441550000000       6.424260000000      23.321590000000      -0.053042426837       0.063354218296       0.114397615329
131 1       4.395790000000       0.043540000000      23.371850000000      -0.004565162381       0.058082816737       0.019213373571
132 1       4.445750000000       0.062620000000      19.088620000000      -0.099929919049      -0.014185727747      -0.002712804767
133 1       0.121590000000       6.457970000000      21.333980000000       0.080206726637       0.118315241011      -0.059502203696
134 1       0.123090000000       2.112120000000      21.351250000000      -0.049770632730       0.021473197889       0.008742853545
135 1       6.501500000000       4.222930000000      25.450870000000      -0.099465918782      -0.097362285746       0.045831502879
136 1       2.140150000000       4.108280000000      17.016670000000       0.116578516875      -0.016571521137       0.037876368700
137 1       0.029430000000       4.332890000000      19.012420000000       0.000389812727       0.193333249924      -0.144614288402
138 1       8.478530000000       4.210800000000      23.532230000000       0.158330141368      -0.016747398299      -0.028916551531
139 1       4.418240000000       1.982460000000      17.114590000000      -0.121711022389       0.039007009600      -0.024066464287
140 1       4.214360000000       6.353390000000      25.441630000000      -0.210522919777      -0.002389691028      -0.137402567378
141 1       2.121210000000       0.141940000000      21.259370000000      -0.000331744604       0.062172491166       0.047006920146
142 1       6.585280000000       0.028460000000      21.216660000000       0.117423217657      -0.153658513176      -0.137678744025
143 1       2.309220000000       6.377470000000      23.560160000000       0.074840636300      -0.013682877542      -0.018582047800
144 1       6.403220000000       2.033610000000      19.072190000000      -0.102554486034       0.212833214274       0.105079568930
145 1       4.234130000000       4.179170000000      19.281590000000       0.029506962507       0.042312129876      -0.080456869098
146 1       4.573950000000       4.558290000000      23.116540000000      -0.031564017151       0.137490727719       0.072741041726
147 1       8.454970000000       2.283280000000      25.496780000000       0.088297779835      -0.122917998175       0.015073616043
148 1       8.502880000000       6.222470000000      17.131650000000       0.034349561770      -0.046304569816       0.141242690628
149 1       8.410380000000       0.171680000000      23.313160000000       0.022498762973      -0.023367005395      -0.018097333219
150 1       0.060170000000       8.482320000000      19.235110000000       0.027789507455      -0.133712276679       0.014587175611
151 1       4.420410000000       6.459520000000      21.304250000000      -0.004139725653      -0.000017974084      -0.042118176828
152 1       4.312130000000       2.236060000000      21.185430000000       0.059887488687       0.099384904885       0.056709532971
153 1       6.510950000000       2.285690000000      23.471360000000       0.010917111740      -0.013404112083      -0.060247365538
154 1       2.184850000000       6.419600000000      19.194110000000       0.031365598406       0.011697720449      -0.022929471030
155 1       2.264720000000       4.144270000000      21.418930000000       0.103485334144      -0.187736316805      -0.023180070045
156 1       6.504860000000       4.377300000000      21.304770000000      -0.267193799129       0.097807579316      -0.029680558174
157 1       6.349400000000       0.003240000000      17.112230000000      -0.063462005546      -0.154610987221      -0.078729628587
158 1       2.107440000000       0.017840000000       0.012130000000      -0.030344988765       0.080919313336       0.033188782534
159 1       6.745010000000       6.611580000000      19.407390000000       0.116074976317       0.006573037893      -0.017220833401
160 1       2.081330000000       2.057120000000      23.319500000000       0.034739422029      -0.021812891271      -0.006437215449
