ITEM: TIMESTEP
0
ITEM: NUMBER OF ATOMS
40
ITEM: BOX BOUNDS pp pp pp
0.0000000000000000e+00 8.7493184070000005e+00
0.0000000000000000e+00 5.0950027650000003e+00
0.0000000000000000e+00 9.3620277830000003e+00
ITEM: ATOMS id type x y z fx fy fz
1 2       1.373860000000       1.575750000000       8.310530000000      -0.097686557024       0.139050231159      -0.018981678377
2 2       3.109210000000       4.123250000000       8.310540000000       0.097724615943       0.139016583830      -0.019082267868
3 2       5.759520000000       0.902570000000       7.477390000000       0.113119941438      -0.128928578562      -0.028970470936
4 2       7.472870000000       3.450080000000       7.477390000000      -0.113268773584      -0.129106254420      -0.028954318855
5 2       4.708160000000       3.450760000000       5.582870000000      -0.125504588792      -0.005091410110       0.031748103373
6 2       1.469500000000       3.499130000000       5.706440000000      -0.119631299497       0.049871025639      -0.248021689583
7 2       3.013560000000       0.951630000000       5.706430000000       0.119717037482       0.049829165066      -0.247936527192
8 2       8.524230000000       0.903260000000       5.582870000000       0.125491483572      -0.005205165298       0.031677743174
9 2       1.384810000000       1.644670000000       2.796380000000       0.112980488978       0.129604968279      -0.028978373619
10 2       3.098270000000       4.192170000000       2.796390000000      -0.113048486041       0.129555500143      -0.029072988179
11 2       5.747840000000       0.972390000000       3.629560000000      -0.097533802569      -0.139694268122      -0.019177284777
12 2       7.484550000000       3.519890000000       3.629560000000       0.097503198098      -0.139711443709      -0.019205559208
13 2       4.150220000000       1.644580000000       0.902010000000       0.124703280660       0.004788546530       0.031331646010
14 2       5.843720000000       4.143190000000       1.025230000000      -0.113825287911      -0.047246672584      -0.245469643422
15 2       7.388670000000       1.595690000000       1.025230000000       0.113831507903      -0.047260469191      -0.245468604480
16 2       0.332850000000       4.192090000000       0.902010000000      -0.124680215887       0.004703417945       0.031435349933
17 1       7.307940000000       1.773870000000       4.415980000000       0.029652359799      -0.062814450476      -0.078653563029
18 1       0.034630000000       0.773040000000       0.035240000000      -0.012263342635       0.063341937282       0.146849243758
19 1       7.341190000000       0.098700000000       6.918400000000       0.102625485535      -0.009739772915      -0.014311217340
20 1       7.271050000000       4.956770000000       2.128000000000       0.002757748109       0.213718694049       0.056048881668
21 1       5.924450000000       4.321380000000       4.415980000000      -0.029661024231      -0.062954845775      -0.078630858890
22 1       7.413790000000       3.333660000000       9.346880000000       0.042971055795       0.031186715289       0.088740805990
23 1       5.891190000000       2.646200000000       6.918400000000      -0.102439003240      -0.009735064013      -0.014256996197
24 1       5.961350000000       2.409270000000       2.128000000000      -0.002844342799       0.213711739692       0.056093801969
25 1       1.443580000000       1.761190000000       4.665930000000      -0.043679758594      -0.031868712240       0.089947124778
26 1       2.933750000000       0.774100000000       9.097350000000       0.030620787910       0.062432455858      -0.079606640336
27 1       1.587770000000       0.137480000000       6.809730000000      -0.008209662722      -0.211841711805       0.056496002049
28 1       1.516640000000       4.996070000000       2.237540000000      -0.104294542272       0.008310323023      -0.015107792820
29 1       0.074260000000       4.322440000000       4.716450000000       0.013752124901      -0.065664338683       0.147733119287
30 1       1.549320000000       3.321600000000       9.097360000000      -0.030657906595       0.062428476319      -0.079638085416
31 1       0.156360000000       2.427480000000       6.869150000000      -0.004076563148       0.025217748305       0.065375998875
32 1       8.701070000000       2.667190000000       2.188430000000       0.005639788834      -0.024261223601       0.062938257456
33 1       4.408810000000       1.774940000000       4.716460000000      -0.013734692592      -0.065697027944       0.147593640104
34 1       5.818590000000       0.786150000000       9.346880000000      -0.042900905977       0.031245650959       0.088781832367
35 1       4.326710000000       4.974980000000       6.869150000000       0.003975472171       0.025179562780       0.065338319844
36 1       4.531320000000       0.119690000000       2.188430000000      -0.005578230605      -0.024263698980       0.062975088280
37 1       3.039490000000       4.308690000000       4.665930000000       0.043689398395      -0.031896737034       0.090065038189
38 1       4.448440000000       3.320540000000       0.035240000000       0.012295499251       0.063280303855       0.146926459775
39 1       2.895290000000       2.684980000000       6.809740000000       0.008186926745      -0.211828608339       0.056438250614
40 1       2.966440000000       2.448570000000       2.237530000000       0.104280785197       0.008337407799      -0.015010146968
