ITEM: TIMESTEP
0
ITEM: NUMBER OF ATOMS
40
ITEM: BOX BOUNDS pp pp pp
0.0000000000000000e+00 8.7493184070000005e+00
0.0000000000000000e+00 5.0950027650000003e+00
0.0000000000000000e+00 9.3620277830000003e+00
ITEM: ATOMS id type c_pe_atom
1 2      -6.328367374122
2 2      -6.328387385969
3 2      -7.811353265259
4 2      -7.811404974883
5 2      -5.448646800251
6 2      -3.584701427640
7 2      -3.584701073362
8 2      -5.448607952564
9 2      -7.810585993876
10 2      -7.810569984990
11 2      -6.330298311640
12 2      -6.330250975124
13 2      -5.444646194599
14 2      -3.586934842520
15 2      -3.586975872703
16 2      -5.444686831055
17 1      -3.832088794503
18 1      -2.783390291085
19 1      -3.784103490344
20 1     -10.976547411213
21 1      -3.832150366713
22 1      -7.716652805919
23 1      -3.784251899499
24 1     -10.976431773430
25 1      -7.719075257863
26 1      -3.827999555344
27 1     -10.975556085789
28 1      -3.785157644624
29 1      -2.785929864583
30 1      -3.828025239067
31 1      -7.152709477606
32 1      -7.151980438888
33 1      -2.785926309733
34 1      -7.716696932048
35 1      -7.152792347919
36 1      -7.151951406901
37 1      -7.719041355440
38 1      -2.783473387253
39 1     -10.975648621796
40 1      -3.785130901351
