ITEM: TIMESTEP
0
ITEM: NUMBER OF ATOMS
80
ITEM: BOX BOUNDS pp pp pp
0.0000000000000000e+00 9.2791913309999998e+00
0.0000000000000000e+00 9.2791913309999998e+00
0.0000000000000000e+00 9.2791913309999998e+00
ITEM: ATOMS id type v_vir_xx v_vir_yy v_vir_zz v_vir_xy v_vir_xz v_vir_yz
1 2      -6.917273315673      -6.917276072615      -6.917293094932      -1.363342625815       1.363331508070       1.363343537548
2 2      -6.039711856339      -6.249702979400      -6.242279145053      -0.000009506924       0.504166980527       0.000005224545
3 2      -6.242377616873      -6.039672381683      -6.249774359400       0.504164475777      -0.000017666689      -0.000002319997
4 2      -6.242380497501      -6.039687160486      -6.249649750486      -0.504164998298       0.000013567066      -0.000001106898
5 2      -6.249774359400      -6.242377616873      -6.039672381683      -0.000017666689      -0.000002319997       0.504164475777
6 2      -6.249759521257      -6.242260782126      -6.039687184256      -0.000001132723      -0.000010714098      -0.504162544950
7 2      -6.039687160486      -6.249649750486      -6.242380497501      -0.000001106898      -0.504164998298       0.000013567066
8 2      -6.917293094932      -6.917273315673      -6.917276072615       1.363331508070       1.363343537548      -1.363342625815
9 2      -6.917267438426      -6.917267438426      -6.917267438426      -1.363342058971      -1.363342058971      -1.363342058971
10 2      -6.917276072615      -6.917293094932      -6.917273315673       1.363343537548      -1.363342625815       1.363331508070
11 2      -6.039687184256      -6.249759521257      -6.242260782126      -0.000010714098      -0.504162544950      -0.000001132723
12 2      -6.249649750486      -6.242380497501      -6.039687160486       0.000013567066      -0.000001106898      -0.504164998298
13 2      -6.249702979400      -6.242279145053      -6.039711856339       0.000005224545      -0.000009506924       0.504166980527
14 2      -6.242260782126      -6.039687184256      -6.249759521257      -0.504162544950      -0.000001132723      -0.000010714098
15 2      -6.242279145053      -6.039711856339      -6.249702979400       0.504166980527       0.000005224545      -0.000009506924
16 2      -6.039672381683      -6.249774359400      -6.242377616873      -0.000002319997       0.504164475777      -0.000017666689
17 2      -6.917301720081      -6.917298960795      -6.917281942964      -1.363332978726       1.363344102503       1.363332067448
18 2      -6.039665394519      -6.249741769523      -6.242368726753      -0.000005593482       0.504162434064      -0.000015268146
19 2      -6.242290590898      -6.039726658396      -6.249663453684       0.504168854593       0.000027708352       0.000017413038
20 2      -6.242267372818      -6.039690098212      -6.249794991894      -0.504164423854      -0.000031804013       0.000018626591
21 2      -6.249663453684      -6.242290590898      -6.039726658396       0.000027708352       0.000017413038       0.504168854593
22 2      -6.249678285178      -6.242407424456      -6.039711856083       0.000019364160      -0.000006799514      -0.504170777779
23 2      -6.039690098212      -6.249794991894      -6.242267372818       0.000018626591      -0.504164423854      -0.000031804013
24 2      -6.917281942964      -6.917301720081      -6.917298960795       1.363344102503       1.363332067448      -1.363332978726
25 2      -6.917307603286      -6.917307603286      -6.917307603286      -1.363333549617      -1.363333549617      -1.363333549617
26 2      -6.917298960795      -6.917281942964      -6.917301720081       1.363332067448      -1.363332978726       1.363344102503
27 2      -6.039711856083      -6.249678285178      -6.242407424456      -0.000006799514      -0.504170777779       0.000019364160
28 2      -6.249794991894      -6.242267372818      -6.039690098212      -0.000031804013       0.000018626591      -0.504164423854
29 2      -6.249741769523      -6.242368726753      -6.039665394519      -0.000015268146      -0.000005593482       0.504162434064
30 2      -6.242407424456      -6.039711856083      -6.249678285178      -0.504170777779       0.000019364160      -0.000006799514
31 2      -6.242368726753      -6.039665394519      -6.249741769523       0.504162434064      -0.000015268146      -0.000005593482
32 2      -6.039726658396      -6.249663453684      -6.242290590898       0.000017413038       0.504168854593       0.000027708352
33 1       3.501462272779       3.602388720640       3.058694926928      -0.485114916877       0.753737462677       0.121328091976
34 1       3.501459501686       3.602393675315       3.058719080562       0.485116305874      -0.753735217109       0.121315931367
35 1       3.602387533781       3.058674997323       3.501451658732      -0.121304964067      -0.485137159405      -0.753731124621
36 1       3.602405907945       3.058727965451       3.501455783103       0.121313491975      -0.485104062700       0.753723078790
37 1       3.602376856754       3.058695062910       3.501438100533      -0.121306545340       0.485129683867       0.753716431222
38 1       3.602393325617       3.058700309662       3.501457967262       0.121309810944       0.485119236449      -0.753731607916
39 1       3.501451658732       3.602387533781       3.058674997323      -0.485137159405      -0.753731124621      -0.121304964067
40 1       3.501438100533       3.602376856754       3.058695062910       0.485129683867       0.753716431222      -0.121306545340
41 1       3.058700309662       3.501457967262       3.602393325617      -0.753731607916       0.121309810944       0.485119236449
42 1       3.058718979727       3.501491233948       3.602404524675       0.753744942002      -0.121317300972       0.485101012818
43 1       3.058674997323       3.501451658732       3.602387533781      -0.753731124621      -0.121304964067      -0.485137159405
44 1       3.058694926928       3.501462272779       3.602388720640       0.753737462677       0.121328091976      -0.485114916877
45 1       3.058742543625       3.501478253684       3.602401468282      -0.753723968114      -0.121334734888      -0.485076980619
46 1       3.058695062910       3.501438100533       3.602376856754       0.753716431222      -0.121306545340       0.485129683867
47 1       3.058719080562       3.501459501686       3.602393675315      -0.753735217109       0.121315931367       0.485116305874
48 1       3.058727965451       3.501455783103       3.602405907945       0.753723078790       0.121313491975      -0.485104062700
49 1       3.501491233948       3.602404524675       3.058718979727       0.485101012818       0.753744942002      -0.121317300972
50 1       3.501478253684       3.602401468282       3.058742543625      -0.485076980619      -0.753723968113      -0.121334734888
51 1       3.602404524675       3.058718979727       3.501491233948      -0.121317300972       0.485101012818       0.753744942002
52 1       3.602393675315       3.058719080562       3.501459501686       0.121315931367       0.485116305874      -0.753735217109
53 1       3.602388720640       3.058694926928       3.501462272779       0.121328091976      -0.485114916877       0.753737462677
54 1       3.602401468282       3.058742543625       3.501478253684      -0.121334734888      -0.485076980619      -0.753723968114
55 1       3.501455783103       3.602405907945       3.058727965451      -0.485104062700       0.753723078790       0.121313491975
56 1       3.501457967262       3.602393325617       3.058700309662       0.485119236449      -0.753731607916       0.121309810944
57 1       3.501461997431       3.602393089007       3.058718698114      -0.485101801290       0.753706291800       0.121307053078
58 1       3.501480548767       3.602401900796       3.058704645614       0.485111938041      -0.753724343711       0.121309030173
59 1       3.602419142163       3.058742143682       3.501471749690      -0.121316022463      -0.485094707747      -0.753735351409
60 1       3.602398905227       3.058695194850       3.501472612999       0.121311045846      -0.485130466268       0.753746753399
61 1       3.602412322853       3.058724007135       3.501479510237      -0.121331741439       0.485095982034       0.753740956481
62 1       3.602397710393       3.058712738959       3.501454644143       0.121324924137       0.485103765888      -0.753722426124
63 1       3.501471749690       3.602419142163       3.058742143682      -0.485094707747      -0.753735351409      -0.121316022463
64 1       3.501479510237       3.602412322853       3.058724007135       0.485095982034       0.753740956481      -0.121331741439
65 1       3.058712738959       3.501454644143       3.602397710393      -0.753722426124       0.121324924137       0.485103765888
66 1       3.058698731253       3.501443827472       3.602392918766       0.753711259758      -0.121304097778       0.485124567171
67 1       3.058742143682       3.501471749690       3.602419142163      -0.753735351409      -0.121316022463      -0.485094707747
68 1       3.058718698114       3.501461997431       3.602393089007       0.753706291800       0.121307053078      -0.485101801290
69 1       3.058677091238       3.501451003803       3.602378474163      -0.753723141106      -0.121303972334      -0.485142407219
70 1       3.058724007135       3.501479510238       3.602412322853       0.753740956481      -0.121331741439       0.485095982034
71 1       3.058704645614       3.501480548767       3.602401900796      -0.753724343711       0.121309030173       0.485111938041
72 1       3.058695194850       3.501472612999       3.602398905227       0.753746753399       0.121311045846      -0.485130466268
73 1       3.501443827472       3.602392918766       3.058698731253       0.485124567171       0.753711259758      -0.121304097778
74 1       3.501451003803       3.602378474163       3.058677091238      -0.485142407219      -0.753723141106      -0.121303972334
75 1       3.602392918766       3.058698731253       3.501443827472      -0.121304097778       0.485124567171       0.753711259758
76 1       3.602401900796       3.058704645614       3.501480548767       0.121309030173       0.485111938041      -0.753724343711
77 1       3.602393089007       3.058718698114       3.501461997431       0.121307053078      -0.485101801290       0.753706291800
78 1       3.602378474163       3.058677091238       3.501451003803      -0.121303972334      -0.485142407219      -0.753723141106
79 1       3.501472612999       3.602398905227       3.058695194850      -0.485130466268       0.753746753399       0.121311045846
80 1       3.501454644143       3.602397710393       3.058712738959       0.485103765888      -0.753722426124       0.121324924137
