40
Config_type=bulk_kappa_phase Weight=1.0 Lattice="8.678901358 0.000000000 0.000000000 0.000000000 5.053996706 0.000000000 0.000000000 0.000000000 9.286679470" Energy=-340.05834780 Virial="20.09404 0.00154 -0.00016 0.00154 21.38885 0.01807 -0.00016 0.01807 19.30209" pbc="T T T" Properties=species:S:1:pos:R:3:forces:R:3
Ga	      1.36606      1.55983      8.24186        -0.010136     -0.003872      0.002155
Ga	      3.08093      4.08683      8.24186         0.009381     -0.005165      0.002580
Ga	      5.70771      0.90201      7.41431         0.001184      0.030495     -0.018703
Ga	      7.41818      3.42901      7.41431        -0.001965      0.031212     -0.017497
Ga	      4.66488      3.42178      5.53824         0.005002      0.008648     -0.001439
Ga	      1.45840      3.46857      5.65996        -0.006623     -0.006803     -0.001881
Ga	      2.98859      0.94157      5.65996         0.007223     -0.007220     -0.002151
Ga	      8.46101      0.89478      5.53825        -0.002949      0.007851     -0.001836
Ga	      1.36803      1.62446      2.77100         0.004967     -0.029913     -0.018370
Ga	      3.07897      4.15145      2.77100        -0.006948     -0.030089     -0.017608
Ga	      5.70474      0.96782      3.59866        -0.005612      0.001700      0.000003
Ga	      7.42115      3.49482      3.59866         0.005763      0.003361      0.000016
Ga	      4.12195      1.63254      0.89505        -0.003211     -0.007754     -0.001181
Ga	      5.79779      4.11242      1.01638        -0.008268      0.006511     -0.000915
Ga	      7.32811      1.58543      1.01638         0.008703      0.006368     -0.001015
Ga	      0.32503      4.15954      0.89505         0.005062     -0.007800     -0.001116
O	      7.24778      1.76550      4.39077        -0.002600      0.005885      0.013529
O	      0.02539      0.76354      0.01949        -0.008678     -0.004137      0.005309
O	      7.28580      0.10915      6.86317        -0.009658     -0.002913      0.001598
O	      7.22128      4.92956      2.12017        -0.005885     -0.012742      0.003102
O	      5.87811      4.29249      4.39076         0.002844      0.005903      0.013470
O	      7.35152      3.30985      9.27230         0.004543      0.007352     -0.005523
O	      5.84009      2.63616      6.86318         0.008668     -0.003051      0.001654
O	      5.90462      2.40256      2.12018         0.006262     -0.012706      0.002760
O	      1.43474      1.74402      4.62908        -0.004134     -0.006553     -0.005853
O	      2.90886      0.76206      9.03422        -0.004888     -0.006506      0.011514
O	      1.56591      0.12401      6.76408         0.004976      0.012042      0.002864
O	      1.50062      4.94427      2.22000         0.010818      0.003945      0.002961
O	      0.08271      4.29098      4.66293         0.006840      0.003532      0.005173
O	      1.53813      3.28906      9.03422         0.004658     -0.006576      0.011924
O	      0.16280      2.41192      6.81375        -0.014418      0.005549      0.003006
O	      8.62359      2.64170      2.17060         0.010697     -0.003607      0.001896
O	      4.36428      1.76398      4.66293        -0.007342      0.003265      0.004988
O	      5.77437      0.78285      9.27230        -0.003699      0.007118     -0.005550
O	      4.28418      4.93892      6.81374         0.014066      0.005439      0.003114
O	      4.50230      0.11470      2.17060        -0.011006     -0.003445      0.001889
O	      3.01225      4.27102      4.62908         0.004835     -0.006714     -0.006034
O	      4.42160      3.29053      0.01949         0.008419     -0.004320      0.005343
O	      2.88107      2.65100      6.76409        -0.005023      0.012249      0.003039
O	      2.94638      2.41727      2.22000        -0.011866      0.003462      0.002789
