ITEM: TIMESTEP
0
ITEM: NUMBER OF ATOMS
40
ITEM: BOX BOUNDS pp pp pp
0.0000000000000000e+00 8.9077567690000006e+00
0.0000000000000000e+00 5.1872663960000001e+00
0.0000000000000000e+00 9.5315614849999992e+00
ITEM: ATOMS id type x y z fx fy fz
1 2       1.392350000000       1.607700000000       8.471010000000       0.105505632631      -0.032265887750       0.024463620844
2 2       3.171910000000       4.201330000000       8.471010000000      -0.105656452301      -0.032245685156       0.024518411882
3 2       5.872780000000       0.909910000000       7.615500000000      -0.042240592357      -0.040624349771      -0.062662615705
4 2       7.599220000000       3.503540000000       7.615500000000       0.042376011510      -0.040554315186      -0.062635449677
5 2       4.802180000000       3.515340000000       5.683090000000       0.221736238769      -0.162318397779       0.107993184566
6 2       1.496010000000       3.561940000000       5.809150000000       0.089103322222      -0.041938467670       0.262747674015
7 2       3.068240000000       0.968300000000       5.809150000000      -0.089161908275      -0.041858749263       0.262726236410
8 2       8.669830000000       0.921710000000       5.683090000000      -0.221709944365      -0.162265371515       0.108029913412
9 2       1.418790000000       1.683320000000       2.849760000000      -0.040347189848       0.040589000969      -0.062231895170
10 2       3.145470000000       4.276950000000       2.849770000000       0.040305254855       0.040680369746      -0.062350519621
11 2       5.845450000000       0.986620000000       3.705180000000       0.104799129847       0.032721745698       0.025805060985
12 2       7.626560000000       3.580250000000       3.705180000000      -0.104869635047       0.032832231067       0.025799875857
13 2       4.216890000000       1.672290000000       0.917840000000      -0.220605415531       0.165362361379       0.106740042040
14 2       5.949730000000       4.218980000000       1.042980000000       0.091005957692       0.043482063143       0.263102693740
15 2       7.522280000000       1.625350000000       1.042980000000      -0.090874953265       0.043367205798       0.263029030206
16 2       0.347360000000       4.265920000000       0.917840000000       0.220584435935       0.165447910721       0.106708763695
17 1       7.437130000000       1.800530000000       4.483370000000       0.035566076645      -0.021800628593       0.007067497936
18 1       0.047000000000       0.789190000000       0.063060000000       0.109246266381      -0.081001468528       0.007491160481
19 1       7.463290000000       0.082670000000       7.042820000000       0.070681311639       0.127197993213      -0.159476469436
20 1       7.383960000000       5.024680000000       2.146970000000       0.062394487594      -0.130464296079      -0.102281144746
21 1       6.034870000000       4.394160000000       4.483370000000      -0.035430016704      -0.021773754226       0.006957583091
22 1       7.556070000000       3.388160000000       9.510890000000       0.027242914228       0.016857759220      -0.130270688353
23 1       6.008710000000       2.676310000000       7.042830000000      -0.070778588513       0.127110378380      -0.159546850595
24 1       6.088060000000       2.431050000000       2.146970000000      -0.062484086565      -0.130452181011      -0.102219904847
25 1       1.461650000000       1.798820000000       4.745340000000      -0.027230715335      -0.016900837157      -0.131433059281
26 1       2.983880000000       0.793810000000       9.249490000000       0.036854147643       0.020188166893       0.007766487135
27 1       1.635560000000       0.161730000000       6.913840000000      -0.061897132088       0.128281790208      -0.099208361418
28 1       1.554930000000       5.104160000000       2.277260000000      -0.070822398864      -0.125097567864      -0.158267093609
29 1       0.063770000000       4.398670000000       4.828890000000      -0.108346023297       0.078716286274       0.007926258557
30 1       1.580370000000       3.387440000000       9.249490000000      -0.036704220421       0.020308087074       0.007778688174
31 1       0.146580000000       2.466680000000       6.993130000000      -0.099663909377       0.034730816341       0.042390956406
32 1       8.871180000000       2.720190000000       2.227720000000       0.099186351438      -0.035982913454       0.042347040200
33 1       4.500480000000       1.805030000000       4.828890000000       0.108363589434       0.078808626439       0.007969795931
34 1       5.915940000000       0.794530000000       9.510890000000      -0.027276706094       0.016817542768      -0.130271036113
35 1       4.417670000000       5.060310000000       6.993120000000       0.099633053072       0.034745463385       0.042531645788
36 1       4.600830000000       0.126560000000       2.227720000000      -0.099142865829      -0.035996005556       0.042320197687
37 1       3.102610000000       4.392450000000       4.745340000000       0.027142688799      -0.016898942691      -0.131335977704
38 1       4.517260000000       3.382820000000       0.063060000000      -0.109328063388      -0.080954047933       0.007426136334
39 1       2.928680000000       2.755360000000       6.913840000000       0.061981062581       0.128296335443      -0.099128394797
40 1       3.009330000000       2.510530000000       2.277260000000       0.070862884548      -0.125148266979      -0.158318494301
