ITEM: TIMESTEP
0
ITEM: NUMBER OF ATOMS
160
ITEM: BOX BOUNDS pp pp pp
0.0000000000000000e+00 8.4170517050000004e+00
0.0000000000000000e+00 8.4170517050000004e+00
0.0000000000000000e+00 2.5251155113999999e+01
ITEM: ATOMS id type c_pe_atom
1 2      -4.685867901599
2 2      -4.505415001744
3 2      -4.502346054236
4 2      -4.649075478229
5 2      -4.637460551708
6 2      -4.703987948282
7 2      -4.557655666688
8 2      -4.506824074202
9 2      -4.532791129660
10 2      -4.504178235764
11 2      -4.490277869120
12 2      -4.637606730293
13 2      -4.687653457017
14 2      -4.628095777044
15 2      -4.500697217466
16 2      -4.520008483845
17 2      -4.572594563693
18 2      -4.694923735464
19 2      -4.557186178179
20 2      -4.519160108783
21 2      -5.035468629140
22 2      -4.977326791015
23 2      -5.165246114347
24 2      -4.832660549649
25 2      -4.973035260062
26 2      -5.270787512984
27 2      -5.245378241376
28 2      -4.797357576634
29 2      -5.231639354120
30 2      -5.095837067882
31 2      -4.970965021905
32 2      -4.958994655499
33 2      -4.928747012122
34 2      -4.888074441748
35 2      -4.929533918365
36 2      -4.864543197143
37 2      -5.103496371172
38 2      -4.906550989757
39 2      -5.235698429932
40 2      -5.249593897746
41 2      -4.966541545814
42 2      -5.057741376233
43 2      -4.977977378727
44 2      -4.926807198398
45 2      -4.895084239807
46 2      -4.874585065835
47 2      -4.946526364914
48 2      -5.103688158952
49 2      -4.943955443265
50 2      -5.254037625742
51 2      -5.270245335317
52 2      -4.933065400432
53 2      -4.853889105281
54 2      -4.936679221422
55 2      -4.929770088446
56 2      -4.922941888760
57 2      -4.976813667027
58 2      -4.967231620426
59 2      -4.924975054509
60 2      -5.240180582394
61 2      -4.878400177083
62 2      -4.833986700203
63 2      -4.840055414789
64 2      -4.854235046162
65 1     -10.970249645795
66 1     -11.027611572468
67 1     -10.933263676901
68 1     -10.968649459647
69 1     -10.947159666065
70 1     -10.812885092544
71 1     -10.951919485668
72 1     -10.624780701644
73 1     -10.908616402080
74 1     -10.614541024682
75 1     -10.913722386077
76 1     -10.890519243436
77 1     -11.109494012718
78 1     -10.917702667896
79 1     -10.921421163852
80 1     -10.853662388231
81 1     -10.902109039984
82 1     -10.992646930319
83 1     -10.891281593433
84 1     -10.930927542007
85 1     -11.138207982220
86 1     -10.973236989435
87 1     -11.000858364465
88 1     -10.918012597553
89 1     -10.914538572843
90 1     -10.967835688857
91 1     -10.624787267228
92 1     -11.005813271354
93 1     -10.914276316806
94 1     -10.976852121974
95 1     -10.851262618814
96 1     -10.820661443894
97 1     -10.818831515427
98 1     -10.815238470213
99 1     -10.905986822873
100 1     -10.913895504808
101 1     -10.990884853240
102 1     -10.613519352309
103 1     -10.579051209391
104 1     -10.912012134173
105 1     -10.620931130827
106 1     -10.922165662516
107 1     -10.959135793601
108 1     -10.875645547752
109 1     -10.937566153175
110 1     -11.039294639995
111 1     -10.981251981657
112 1     -10.910232668373
113 1     -11.122721037889
114 1     -10.981929115921
115 1     -10.949822826536
116 1     -10.941860652246
117 1     -10.955192233155
118 1     -10.990476358791
119 1     -10.939005620638
120 1     -11.124756733208
121 1     -10.932299081388
122 1     -10.925109576207
123 1     -10.824982263970
124 1     -10.921278311789
125 1     -10.894697584789
126 1     -11.004161018045
127 1     -11.013978872984
128 1     -10.986066088380
129 1     -10.923257007794
130 1     -10.942356564786
131 1     -11.107081182332
132 1     -11.010928759702
133 1     -10.944442433096
134 1     -10.854890243758
135 1     -10.994158796460
136 1     -11.091469331677
137 1     -10.824546650977
138 1     -10.981439287818
139 1     -11.022442227479
140 1     -10.828661338030
141 1     -10.960697567365
142 1     -10.972892914684
143 1     -10.841610527141
144 1     -10.977221947589
145 1     -10.925963120877
146 1     -10.575520117831
147 1     -10.998701805257
148 1     -10.846712811526
149 1     -11.031707117539
150 1     -10.924759962766
151 1     -10.949830120632
152 1     -10.878167239395
153 1     -11.036445358301
154 1     -11.116630437548
155 1     -10.875190927590
156 1     -10.890305939275
157 1     -10.991609386458
158 1     -11.109440885993
159 1     -10.623614684442
160 1     -10.853642568245
