ITEM: TIMESTEP
0
ITEM: NUMBER OF ATOMS
80
ITEM: BOX BOUNDS pp pp pp
0.0000000000000000e+00 9.3356569989999993e+00
0.0000000000000000e+00 9.3356569989999993e+00
0.0000000000000000e+00 9.3356569989999993e+00
ITEM: ATOMS id type x y z fx fy fz
1 2       7.001740000000       2.333910000000       2.333910000000       0.000016613001       0.000024967603       0.000026046611
2 2       7.001740000000       4.336110000000       4.667830000000       0.000050585424       0.002096875909      -0.000028991650
3 2       0.000000000000       7.001740000000       0.331720000000      -0.000003673890       0.000058145496      -0.002139891317
4 2       0.000000000000       2.333910000000       4.336110000000      -0.000050822490       0.000091898383       0.002089076864
5 2       0.331720000000       0.000000000000       7.001740000000      -0.002139891317      -0.000003673890       0.000058145496
6 2       0.331720000000       4.667830000000       2.333910000000      -0.002144520543      -0.000076140398       0.000099459222
7 2       2.333910000000       4.336110000000       0.000000000000       0.000091898383       0.002089076864      -0.000050822490
8 2       2.333910000000       7.001740000000       2.333910000000       0.000026046611       0.000016613001       0.000024967603
9 2       2.333910000000       2.333910000000       2.333910000000       0.000022134554       0.000022134554       0.000022134554
10 2       2.333910000000       2.333910000000       7.001740000000       0.000024967603       0.000026046611       0.000016613001
11 2       2.333910000000       0.331720000000       4.667830000000       0.000099459222      -0.002144520543      -0.000076140398
12 2       4.336110000000       0.000000000000       2.333910000000       0.002089076864      -0.000050822490       0.000091898383
13 2       4.336110000000       4.667830000000       7.001740000000       0.002096875909      -0.000028991650       0.000050585424
14 2       4.667830000000       2.333910000000       0.331720000000      -0.000076140398       0.000099459222      -0.002144520543
15 2       4.667830000000       7.001740000000       4.336110000000      -0.000028991650       0.000050585424       0.002096875909
16 2       7.001740000000       0.331720000000       0.000000000000       0.000058145496      -0.002139891317      -0.000003673890
17 2       2.333910000000       7.001740000000       7.001740000000       0.000028255266       0.000024939336       0.000031059974
18 2       2.333910000000       9.003940000000       0.000000000000       0.000062314684       0.002066944220      -0.000009839367
19 2       4.667830000000       2.333910000000       4.999550000000      -0.000035157817       0.000054755267      -0.002190591175
20 2       4.667830000000       7.001740000000       9.003940000000      -0.000082306235       0.000095289591       0.002074743379
21 2       4.999550000000       4.667830000000       2.333910000000      -0.002190591175      -0.000035157817       0.000054755267
22 2       4.999550000000       0.000000000000       7.001740000000      -0.002185962110      -0.000056988273       0.000087729172
23 2       7.001740000000       9.003940000000       4.667830000000       0.000095289591       0.002074743379      -0.000082306235
24 2       7.001740000000       2.333910000000       7.001740000000       0.000031059974       0.000028255266       0.000024939336
25 2       7.001740000000       7.001740000000       7.001740000000       0.000015534023       0.000015534023       0.000015534023
26 2       7.001740000000       7.001740000000       2.333910000000       0.000024939336       0.000031059974       0.000028255266
27 2       7.001740000000       4.999550000000       0.000000000000       0.000087729172      -0.002185962110      -0.000056988273
28 2       9.003940000000       4.667830000000       7.001740000000       0.002074743379      -0.000082306235       0.000095289591
29 2       9.003940000000       0.000000000000       2.333910000000       0.002066944220      -0.000009839367       0.000062314684
30 2       0.000000000000       7.001740000000       4.999550000000      -0.000056988273       0.000087729172      -0.002185962110
31 2       0.000000000000       2.333910000000       9.003940000000      -0.000009839367       0.000062314684       0.002066944220
32 2       2.333910000000       4.999550000000       4.667830000000       0.000054755267      -0.002190591175      -0.000035157817
33 1       8.255370000000       5.695850000000       1.472370000000      -0.131413669850       0.058749081092       0.052850248862
34 1       8.255370000000       3.639810000000       3.195460000000      -0.131369690479      -0.058710063507      -0.052853873600
35 1       8.307640000000       1.472370000000       1.080290000000      -0.058767399187       0.052838429426       0.131418874132
36 1       8.307640000000       3.195460000000       5.748120000000      -0.058733351506      -0.052857516946       0.131355764881
37 1       1.028020000000       3.195460000000       1.080290000000       0.058738622817      -0.052867826339       0.131380162452
38 1       1.028020000000       1.472370000000       5.748120000000       0.058755612822       0.052859945442       0.131389338643
39 1       1.080290000000       8.307640000000       1.472370000000       0.131418874132      -0.058767399187       0.052838429426
40 1       1.080290000000       1.028020000000       3.195460000000       0.131380162452       0.058738622817      -0.052867826339
41 1       1.472370000000       5.748120000000       1.028020000000       0.052859945442       0.131389338643       0.058755612822
42 1       1.472370000000       3.587540000000       3.639810000000       0.052847023140      -0.131368850604      -0.058726144891
43 1       1.472370000000       1.080290000000       8.307640000000       0.052838429426       0.131418874132      -0.058767399187
44 1       1.472370000000       8.255370000000       5.695850000000       0.052850248862      -0.131413669850       0.058749081092
45 1       3.195460000000       3.587540000000       5.695850000000      -0.052870369475      -0.131340548330       0.058714127802
46 1       3.195460000000       1.080290000000       1.028020000000      -0.052867826339       0.131380162452       0.058738622817
47 1       3.195460000000       8.255370000000       3.639810000000      -0.052853873600      -0.131369690479      -0.058710063507
48 1       3.195460000000       5.748120000000       8.307640000000      -0.052857516946       0.131355764881      -0.058733351506
49 1       3.587540000000       3.639810000000       1.472370000000      -0.131368850604      -0.058726144891       0.052847023140
50 1       3.587540000000       5.695850000000       3.195460000000      -0.131340548330       0.058714127802      -0.052870369475
51 1       3.639810000000       1.472370000000       3.587540000000      -0.058726144891       0.052847023140      -0.131368850604
52 1       3.639810000000       3.195460000000       8.255370000000      -0.058710063507      -0.052853873600      -0.131369690479
53 1       5.695850000000       1.472370000000       8.255370000000       0.058749081092       0.052850248862      -0.131413669850
54 1       5.695850000000       3.195460000000       3.587540000000       0.058714127802      -0.052870369475      -0.131340548330
55 1       5.748120000000       8.307640000000       3.195460000000       0.131355764881      -0.058733351506      -0.052857516946
56 1       5.748120000000       1.028020000000       1.472370000000       0.131389338643       0.058755612822       0.052859945442
57 1       3.587540000000       1.028020000000       6.140200000000      -0.131373961431       0.058746990767       0.052842925223
58 1       3.587540000000       8.307640000000       7.863290000000      -0.131343154870      -0.058719169062      -0.052869165173
59 1       3.639810000000       6.140200000000       5.748120000000      -0.058740716059       0.052841763889       0.131380758826
60 1       3.639810000000       7.863290000000       1.080290000000      -0.058718162756      -0.052878310871       0.131374347740
61 1       5.695850000000       7.863290000000       5.748120000000       0.058723134810      -0.052893775789       0.131355220829
62 1       5.695850000000       6.140200000000       1.080290000000       0.058762749349       0.052846024466       0.131415568153
63 1       5.748120000000       3.639810000000       6.140200000000       0.131380758826      -0.058740716059       0.052841763889
64 1       5.748120000000       5.695850000000       7.863290000000       0.131355220829       0.058723134810      -0.052893775789
65 1       6.140200000000       1.080290000000       5.695850000000       0.052846024466       0.131415568153       0.058762749349
66 1       6.140200000000       8.255370000000       8.307640000000       0.052820378295      -0.131413512105      -0.058759684895
67 1       6.140200000000       5.748120000000       3.639810000000       0.052841763889       0.131380758826      -0.058740716059
68 1       6.140200000000       3.587540000000       1.028020000000       0.052842925223      -0.131373961431       0.058746990767
69 1       7.863290000000       8.255370000000       1.028020000000      -0.052878439688      -0.131377562379       0.058725343217
70 1       7.863290000000       5.748120000000       5.695850000000      -0.052893775789       0.131355220829       0.058723134810
71 1       7.863290000000       3.587540000000       8.307640000000      -0.052869165173      -0.131343154870      -0.058719169062
72 1       7.863290000000       1.080290000000       3.639810000000      -0.052878310871       0.131374347740      -0.058718162756
73 1       8.255370000000       8.307640000000       6.140200000000      -0.131413512105      -0.058759684894       0.052820378295
74 1       8.255370000000       1.028020000000       7.863290000000      -0.131377562379       0.058725343217      -0.052878439688
75 1       8.307640000000       6.140200000000       8.255370000000      -0.058759684895       0.052820378295      -0.131413512105
76 1       8.307640000000       7.863290000000       3.587540000000      -0.058719169062      -0.052869165173      -0.131343154870
77 1       1.028020000000       6.140200000000       3.587540000000       0.058746990767       0.052842925223      -0.131373961431
78 1       1.028020000000       7.863290000000       8.255370000000       0.058725343217      -0.052878439688      -0.131377562379
79 1       1.080290000000       3.639810000000       7.863290000000       0.131374347740      -0.058718162756      -0.052878310871
80 1       1.080290000000       5.695850000000       6.140200000000       0.131415568153       0.058762749349       0.052846024466
