ITEM: TIMESTEP
0
ITEM: NUMBER OF ATOMS
160
ITEM: BOX BOUNDS pp pp pp
0.0000000000000000e+00 8.4793230770000001e+00
0.0000000000000000e+00 8.4793230770000001e+00
0.0000000000000000e+00 2.5437969232000000e+01
ITEM: ATOMS id type c_pe_atom
1 2      -4.810540652736
2 2      -4.635548620712
3 2      -4.631901002915
4 2      -4.779393078607
5 2      -4.767471584895
6 2      -4.833214465772
7 2      -4.685174440216
8 2      -4.626796209666
9 2      -4.658497840817
10 2      -4.635682132817
11 2      -4.613247177298
12 2      -4.766260607262
13 2      -4.816150863788
14 2      -4.757387200653
15 2      -4.627980346214
16 2      -4.644713867673
17 2      -4.698915239125
18 2      -4.825667579150
19 2      -4.684987865211
20 2      -4.644864916535
21 2      -5.136072365485
22 2      -5.095317333497
23 2      -5.279096212121
24 2      -4.946683381514
25 2      -5.086511418290
26 2      -5.378020569859
27 2      -5.351852802791
28 2      -4.908375153288
29 2      -5.338994049072
30 2      -5.209645465401
31 2      -5.082734590664
32 2      -5.069873385933
33 2      -5.052010609191
34 2      -5.012436880691
35 2      -5.043346951495
36 2      -4.969240809723
37 2      -5.207149501180
38 2      -5.031414675016
39 2      -5.343373759153
40 2      -5.360700955449
41 2      -5.078696996383
42 2      -5.162962083040
43 2      -5.086207286049
44 2      -5.047501977180
45 2      -5.017908444381
46 2      -4.996287713727
47 2      -5.067595767074
48 2      -5.217303199213
49 2      -5.065811806365
50 2      -5.361784728684
51 2      -5.376068439645
52 2      -5.048445861912
53 2      -4.957938334144
54 2      -5.049105479020
55 2      -5.047769805228
56 2      -5.024081989952
57 2      -5.086438429073
58 2      -5.079245263434
59 2      -5.041097221461
60 2      -5.346039759390
61 2      -5.009302036228
62 2      -4.966273961965
63 2      -4.966555506374
64 2      -4.984553780603
65 1     -10.873298863858
66 1     -10.935960338795
67 1     -10.853492204054
68 1     -10.884642615797
69 1     -10.854303686695
70 1     -10.718168294238
71 1     -10.859984448518
72 1     -10.580280242298
73 1     -10.815416923652
74 1     -10.571251344849
75 1     -10.823449503168
76 1     -10.800291636418
77 1     -11.013526255787
78 1     -10.829423704953
79 1     -10.830726256197
80 1     -10.748419607219
81 1     -10.807475657686
82 1     -10.905757961706
83 1     -10.794857488443
84 1     -10.833343971662
85 1     -11.042047119275
86 1     -10.887441269670
87 1     -10.910296497304
88 1     -10.820455066431
89 1     -10.820623342932
90 1     -10.869798485159
91 1     -10.579747263124
92 1     -10.915689587115
93 1     -10.830308702833
94 1     -10.890801730825
95 1     -10.744816863780
96 1     -10.727390311682
97 1     -10.722231185999
98 1     -10.719029209519
99 1     -10.821996605818
100 1     -10.835866873361
101 1     -10.899948021075
102 1     -10.569133463674
103 1     -10.531779562631
104 1     -10.815608848611
105 1     -10.574679820786
106 1     -10.824822812614
107 1     -10.871048402934
108 1     -10.789179087461
109 1     -10.843722783719
110 1     -10.952736803043
111 1     -10.896549826460
112 1     -10.824854465116
113 1     -11.026477441407
114 1     -10.894187158531
115 1     -10.857738972458
116 1     -10.845340104163
117 1     -10.858141175867
118 1     -10.904436860648
119 1     -10.854648099669
120 1     -11.025518197723
121 1     -10.836884142294
122 1     -10.830014690496
123 1     -10.735141535888
124 1     -10.829549705701
125 1     -10.808071006521
126 1     -10.920520218866
127 1     -10.921618451802
128 1     -10.896083913545
129 1     -10.834190170085
130 1     -10.849838865963
131 1     -11.004494917722
132 1     -10.922939758892
133 1     -10.841551853746
134 1     -10.750635977403
135 1     -10.905848910517
136 1     -10.997026999545
137 1     -10.731139669943
138 1     -10.897603431600
139 1     -10.933629557751
140 1     -10.725210851682
141 1     -10.874762088181
142 1     -10.887444042326
143 1     -10.749497100045
144 1     -10.878809213535
145 1     -10.835372710058
146 1     -10.530858512017
147 1     -10.909535868770
148 1     -10.755117182796
149 1     -10.953167367488
150 1     -10.830758539257
151 1     -10.851545510156
152 1     -10.782598448277
153 1     -10.951042926003
154 1     -11.018318999348
155 1     -10.794269432349
156 1     -10.795714884233
157 1     -10.897521516940
158 1     -11.011589304197
159 1     -10.577764902010
160 1     -10.764029973472
