ITEM: TIMESTEP
0
ITEM: NUMBER OF ATOMS
30
ITEM: BOX BOUNDS xy xz yz pp pp pp
-2.5470489480000000e+00 5.0940978960000001e+00 -2.5470489480000000e+00
0.0000000000000000e+00 4.4116186080000004e+00 0.0000000000000000e+00
0.0000000000000000e+00 1.3713676217000000e+01 0.0000000000000000e+00
ITEM: ATOMS id type v_vir_xx v_vir_yy v_vir_zz v_vir_xy v_vir_xz v_vir_yz
1 2      -3.104660407790      -3.104606871729      -1.820033946898       0.000015377867       0.000001956726      -0.000011747741
2 2      -3.104707109089      -3.104651303433      -1.820221794325      -0.000018739937      -0.000002721168      -0.000012125317
3 2      -3.104612457264      -3.104570808629      -1.820069231506       0.000010674412       0.000003761629      -0.000008001653
4 2      -3.104552862040      -3.104539724205      -1.820066847172      -0.000017218101      -0.000011552652      -0.000004039463
5 2      -3.104663782599      -3.104651895832      -1.820252038691      -0.000002073224       0.000016842830      -0.000003915742
6 2      -3.104609649333      -3.104580635493      -1.819989912094       0.000001015045      -0.000012737516       0.000003279217
7 2      -3.104642255529      -3.104631620829      -1.820306365226       0.000006594557       0.000014305399      -0.000006634973
8 2      -3.104596780538      -3.104585899072      -1.820105849495      -0.000006528771      -0.000012109770      -0.000004937659
9 2      -3.104645259971      -3.104608242445      -1.820173467259      -0.000003502905       0.000009482234       0.000001631915
10 2      -3.104605172634      -3.104588916637      -1.820119250425       0.000002485492      -0.000013836971      -0.000003217038
11 2      -3.104610933156      -3.104590267845      -1.820136318849       0.000014779247       0.000007568446      -0.000004979806
12 2      -3.104670203957      -3.104629266452      -1.820224352259      -0.000013296145      -0.000004553302      -0.000008944113
13 1       2.027305381953       2.865106610511       1.586191281675      -0.725545594929       0.664310756927       0.383537488458
14 1       3.284056555681       1.608404573586       1.586188053819       0.000003748408      -0.000002039975      -0.767084856395
15 1       2.027320568771       2.865098225124       1.586179687842       0.725556896191      -0.664317494583       0.383538108763
16 1       2.027312462280       2.865066526601       1.586164784773      -0.725570432213       0.664303645294       0.383518353595
17 1       2.027271416069       2.865108226927       1.586164654398       0.725547222100      -0.664290314369       0.383540507597
18 1       3.284059062531       1.608386383216       1.586164279929       0.000023691934      -0.000012605694      -0.767070620928
19 1       2.027269068673       2.865095964345       1.586173816311      -0.725547696083       0.664295633780       0.383540041144
20 1       3.284026864633       1.608374140907       1.586181900703      -0.000024668442       0.000016074982      -0.767069097343
21 1       2.027309238606       2.865054634494       1.586173920031       0.725571295241      -0.664311241414       0.383512725659
22 1       2.027221397004       2.865091016693       1.586160694538      -0.725558809594       0.664298115183       0.383540784709
23 1       2.027258633438       2.865039338196       1.586159468966       0.725586323376      -0.664305900892       0.383516187277
24 1       3.283961952041       1.608336408457       1.586142944915      -0.000025192093       0.000012188362      -0.767052427698
25 1       2.027276610225       2.865059861923       1.586170052099      -0.725561183192       0.664309226180       0.383528689001
26 1       3.284032677270       1.608355362309       1.586180911981      -0.000002141438      -0.000002719672      -0.767075678551
27 1       2.027265591718       2.865074543610       1.586183736577       0.725558211743      -0.664300426694       0.383536792832
28 1       2.027251672269       2.865091432181       1.586176131589      -0.725559291090       0.664297956835       0.383539439695
29 1       2.027283687701       2.865075960446       1.586174844667       0.725572411823      -0.664311417114       0.383524695568
30 1       3.283980435290       1.608366222604       1.586162002635      -0.000014089532       0.000008473826      -0.767059231967
