ITEM: TIMESTEP
0
ITEM: NUMBER OF ATOMS
20
ITEM: BOX BOUNDS xy xz yz pp pp pp
-1.3652377397480000e+00 1.2236159064971000e+01 0.0000000000000000e+00
0.0000000000000000e+00 3.0301779560000002e+00 -1.3652377397480000e+00
0.0000000000000000e+00 5.6098192148810000e+00 0.0000000000000000e+00
ITEM: ATOMS id type v_vir_xx v_vir_yy v_vir_zz v_vir_xy v_vir_xz v_vir_yz
1 2      -2.866063519405      -1.678873581296      -5.067853822149       0.000000230326      -0.066204787877       0.000002188972
2 2      -2.866036490079      -1.678868142671      -5.067873579530       0.000000230924      -0.066197603277       0.000002189161
3 2      -4.488240166030      -3.839688285148      -2.662215978176      -0.000007747014       0.080154908383      -0.000001765447
4 2      -4.488247970840      -3.839611941204      -2.662210382251      -0.000007746473       0.080159012203      -0.000001765316
5 2      -2.866007505535      -1.678815504075      -5.067699103070      -0.000000230164      -0.066269373869      -0.000002189503
6 2      -2.865954394645      -1.678791128101      -5.067675745289      -0.000000231037      -0.066233196914      -0.000002189886
7 2      -4.488248522544      -3.839661117059      -2.662263530873       0.000007746964       0.080122632543       0.000001765157
8 2      -4.488220069704      -3.839673571359      -2.662252718425       0.000007746854       0.080074071352       0.000001765147
9 1       1.565254995038      -0.015862473312      -0.031926759547      -0.000010181455       0.452562369203      -0.000003514165
10 1       1.565280178188      -0.015973050003      -0.031953872358      -0.000010180514       0.452555389904      -0.000003513990
11 1       1.948578076712       1.181551889337       2.760699133984      -0.000002290217      -0.049926431966      -0.000001475255
12 1       1.948630024959       1.181576586589       2.760723611527      -0.000002290841      -0.049937960853      -0.000001475388
13 1       0.910164264287       1.147433179059       1.797931358825      -0.000002731877      -0.395358864864       0.000002771681
14 1       0.910129529456       1.147415185161       1.797903404577      -0.000002731973      -0.395373198269       0.000002771299
15 1       1.565264656312      -0.015949964983      -0.031939476025       0.000010181993       0.452536261728       0.000003514351
16 1       1.565254108173      -0.015972818375      -0.031967368018       0.000010180947       0.452542207851       0.000003514279
17 1       1.948563708247       1.181555940460       2.760636275551       0.000002290278      -0.049927773196       0.000001475275
18 1       1.948624294988       1.181569636035       2.760669411128       0.000002290865      -0.049961016896       0.000001475391
19 1       0.910082952631       1.147416943062       1.797775001572       0.000002733036      -0.395406367436      -0.000002768494
20 1       0.910092662627       1.147413302731       1.797777166376       0.000002732858      -0.395413515423      -0.000002768571
