ITEM: TIMESTEP
0
ITEM: NUMBER OF ATOMS
80
ITEM: BOX BOUNDS pp pp pp
0.0000000000000000e+00 9.2603694420000000e+00
0.0000000000000000e+00 9.2603694420000000e+00
0.0000000000000000e+00 9.2603694420000000e+00
ITEM: ATOMS id type x y z fx fy fz
1 2       6.945280000000       2.315090000000       2.315090000000      -0.000108509964       0.000049568126      -0.000020082296
2 2       6.945280000000       4.302710000000       4.630180000000      -0.000047249182       0.013176965359       0.000082977343
3 2       0.000000000000       6.945280000000       0.327470000000       0.000009271471      -0.000064098361      -0.013094306456
4 2       0.000000000000       2.315090000000       4.302710000000       0.000010495151       0.000034664038       0.013156362918
5 2       0.327470000000       0.000000000000       6.945280000000      -0.013094306456       0.000009271471      -0.000064098361
6 2       0.327470000000       4.630180000000       2.315090000000      -0.013120849895       0.000084204128       0.000017809189
7 2       2.315090000000       4.302710000000       0.000000000000       0.000034664038       0.013156362918       0.000010495151
8 2       2.315090000000       6.945280000000       2.315090000000      -0.000020082296      -0.000108509964       0.000049568126
9 2       2.315090000000       2.315090000000       2.315090000000       0.000033328830       0.000033328830       0.000033328830
10 2       2.315090000000       2.315090000000       6.945280000000       0.000049568126      -0.000020082296      -0.000108509964
11 2       2.315090000000       0.327470000000       4.630180000000       0.000017809189      -0.013120849895       0.000084204128
12 2       4.302710000000       0.000000000000       2.315090000000       0.013156362918       0.000010495151       0.000034664038
13 2       4.302710000000       4.630180000000       6.945280000000       0.013176965359       0.000082977343      -0.000047249182
14 2       4.630180000000       2.315090000000       0.327470000000       0.000084204128       0.000017809189      -0.013120849895
15 2       4.630180000000       6.945280000000       4.302710000000       0.000082977343      -0.000047249182       0.013176965359
16 2       6.945280000000       0.327470000000       0.000000000000      -0.000064098361      -0.013094306456       0.000009271471
17 2       2.315090000000       6.945280000000       6.945280000000       0.000093089372      -0.000090608650      -0.000030847902
18 2       2.315090000000       8.932900000000       0.000000000000       0.000037769556       0.013104126173      -0.000007065928
19 2       4.630180000000       2.315090000000       4.957660000000       0.000066632502       0.000054633594      -0.013139057906
20 2       4.630180000000       6.945280000000       8.932900000000       0.000067855992      -0.000084067392       0.013124722665
21 2       4.957660000000       4.630180000000       2.315090000000      -0.013139057906       0.000066632502       0.000054633594
22 2       4.957660000000       0.000000000000       6.945280000000      -0.013112516467      -0.000005839398      -0.000067209639
23 2       6.945280000000       8.932900000000       4.630180000000      -0.000084067392       0.013124722665       0.000067855992
24 2       6.945280000000       2.315090000000       6.945280000000      -0.000030847902       0.000093089372      -0.000090608650
25 2       6.945280000000       6.945280000000       6.945280000000      -0.000038859448      -0.000038859448      -0.000038859448
26 2       6.945280000000       6.945280000000       2.315090000000      -0.000090608650      -0.000030847902       0.000093089372
27 2       6.945280000000       4.957660000000       0.000000000000      -0.000067209639      -0.013112516467      -0.000005839398
28 2       8.932900000000       4.630180000000       6.945280000000       0.013124722665       0.000067855992      -0.000084067392
29 2       8.932900000000       0.000000000000       2.315090000000       0.013104126173      -0.000007065928       0.000037769556
30 2       0.000000000000       6.945280000000       4.957660000000      -0.000005839398      -0.000067209639      -0.013112516467
31 2       0.000000000000       2.315090000000       8.932900000000      -0.000007065928       0.000037769556       0.013104126173
32 2       2.315090000000       4.957660000000       4.630180000000       0.000054633594      -0.013139057906       0.000066632502
33 1       8.181930000000       5.642190000000       1.459060000000       0.022419955234      -0.015396293130      -0.032972814762
34 1       8.181930000000       3.618180000000       3.171130000000       0.022412006657       0.015372061975       0.032894998170
35 1       8.248370000000       1.459060000000       1.078440000000       0.015336132806      -0.033005579652      -0.022366294733
36 1       8.248370000000       3.171130000000       5.708620000000       0.015312488820       0.032942505389      -0.022282906328
37 1       1.012000000000       3.171130000000       1.078440000000      -0.015336615478       0.032914284474      -0.022387538451
38 1       1.012000000000       1.459060000000       5.708620000000      -0.015305451973      -0.033020443058      -0.022268179774
39 1       1.078440000000       8.248370000000       1.459060000000      -0.022366294733       0.015336132806      -0.033005579652
40 1       1.078440000000       1.012000000000       3.171130000000      -0.022387538451      -0.015336615478       0.032914284474
41 1       1.459060000000       5.708620000000       1.012000000000      -0.033020443058      -0.022268179774      -0.015305451973
42 1       1.459060000000       3.551750000000       3.618180000000      -0.032989514985       0.022275049495       0.015355580358
43 1       1.459060000000       1.078440000000       8.248370000000      -0.033005579652      -0.022366294733       0.015336132806
44 1       1.459060000000       8.181930000000       5.642190000000      -0.032972814762       0.022419955234      -0.015396293130
45 1       3.171130000000       3.551750000000       5.642190000000       0.032898107527       0.022318971970      -0.015387328010
46 1       3.171130000000       1.078440000000       1.012000000000       0.032914284474      -0.022387538451      -0.015336615478
47 1       3.171130000000       8.181930000000       3.618180000000       0.032894998170       0.022412006657       0.015372061975
48 1       3.171130000000       5.708620000000       8.248370000000       0.032942505389      -0.022282906328       0.015312488820
49 1       3.551750000000       3.618180000000       1.459060000000       0.022275049495       0.015355580358      -0.032989514985
50 1       3.551750000000       5.642190000000       3.171130000000       0.022318971970      -0.015387328010       0.032898107527
51 1       3.618180000000       1.459060000000       3.551750000000       0.015355580358      -0.032989514985       0.022275049495
52 1       3.618180000000       3.171130000000       8.181930000000       0.015372061975       0.032894998170       0.022412006657
53 1       5.642190000000       1.459060000000       8.181930000000      -0.015396293130      -0.032972814762       0.022419955234
54 1       5.642190000000       3.171130000000       3.551750000000      -0.015387328010       0.032898107527       0.022318971970
55 1       5.708620000000       8.248370000000       3.171130000000      -0.022282906328       0.015312488820       0.032942505389
56 1       5.708620000000       1.012000000000       1.459060000000      -0.022268179774      -0.015305451973      -0.033020443058
57 1       3.551750000000       1.012000000000       6.089240000000       0.022264830673      -0.015323071615      -0.032935774201
58 1       3.551750000000       8.248370000000       7.801310000000       0.022251727076       0.015320553505       0.033020314209
59 1       3.618180000000       6.089240000000       5.708620000000       0.015347255379      -0.032925922369      -0.022301163058
60 1       3.618180000000       7.801310000000       1.078440000000       0.015368869797       0.032982244450      -0.022392691711
61 1       5.642190000000       7.801310000000       5.708620000000      -0.015369452892       0.032996987507      -0.022317256349
62 1       5.642190000000       6.089240000000       1.078440000000      -0.015402653434      -0.032897578389      -0.022428469054
63 1       5.708620000000       3.618180000000       6.089240000000      -0.022301163058       0.015347255379      -0.032925922369
64 1       5.708620000000       5.642190000000       7.801310000000      -0.022317256349      -0.015369452892       0.032996987507
65 1       6.089240000000       1.078440000000       5.642190000000      -0.032897578389      -0.022428469054      -0.015402653434
66 1       6.089240000000       8.181930000000       8.248370000000      -0.032932549000       0.022380539682       0.015339073984
67 1       6.089240000000       5.708620000000       3.618180000000      -0.032925922369      -0.022301163058       0.015347255379
68 1       6.089240000000       3.551750000000       1.012000000000      -0.032935774201       0.022264830673      -0.015323071615
69 1       7.801310000000       8.181930000000       1.012000000000       0.033003741787       0.022373953627      -0.015329999663
70 1       7.801310000000       5.708620000000       5.642190000000       0.032996987507      -0.022317256349      -0.015369452892
71 1       7.801310000000       3.551750000000       8.248370000000       0.033020314209       0.022251727076       0.015320553505
72 1       7.801310000000       1.078440000000       3.618180000000       0.032982244450      -0.022392691711       0.015368869797
73 1       8.181930000000       8.248370000000       6.089240000000       0.022380539682       0.015339073984      -0.032932549000
74 1       8.181930000000       1.012000000000       7.801310000000       0.022373953627      -0.015329999663       0.033003741787
75 1       8.248370000000       6.089240000000       8.181930000000       0.015339073984      -0.032932549000       0.022380539682
76 1       8.248370000000       7.801310000000       3.551750000000       0.015320553505       0.033020314209       0.022251727076
77 1       1.012000000000       6.089240000000       3.551750000000      -0.015323071615      -0.032935774201       0.022264830673
78 1       1.012000000000       7.801310000000       8.181930000000      -0.015329999663       0.033003741787       0.022373953627
79 1       1.078440000000       3.618180000000       7.801310000000      -0.022392691711       0.015368869797       0.032982244450
80 1       1.078440000000       5.642190000000       6.089240000000      -0.022428469054      -0.015402653434      -0.032897578389
