ITEM: TIMESTEP
0
ITEM: NUMBER OF ATOMS
160
ITEM: BOX BOUNDS pp pp pp
0.0000000000000000e+00 8.3792421939999997e+00
0.0000000000000000e+00 8.3792421939999997e+00
0.0000000000000000e+00 2.5137726581999999e+01
ITEM: ATOMS id type v_vir_xx v_vir_yy v_vir_zz v_vir_xy v_vir_xz v_vir_yz
1 2      -3.207318874478      -1.082876959577      -1.143989227798       0.006678867719      -0.211253616164      -0.125798384454
2 2      -3.432915516492      -2.529859592719      -3.066002369590      -0.283936601210       0.454935244165       0.127092055410
3 2      -2.350666668014      -3.336800773288      -2.825767482932       0.356274224470       0.486926298660      -0.007017932378
4 2      -0.859586134750      -2.925928390398      -2.927291634783       0.279524314870      -0.242187842692       0.538958083243
5 2      -3.002995867138      -0.964113823290      -2.799982926689       0.114004891556      -0.079160944586       0.073716365686
6 2      -3.152245513803      -1.158309442476      -1.711520848557       0.267888313055      -0.027578091136      -0.329124093571
7 2      -2.482167856222      -3.572536007552      -1.202747854728      -0.645672133973       0.046167159812      -0.057183962934
8 2      -0.682671169076      -3.927590553398      -2.944116687192       0.092010816686      -0.243279515474      -0.331237554250
9 2      -3.831935427862      -2.599287571479      -1.136544209946      -0.587327610041       0.081965564438      -0.330651612198
10 2      -2.536464875565      -3.380634384527      -2.899277050122       0.352607430238       0.123909634756      -0.277272154807
11 2      -4.008278721072      -1.043759471098      -3.139396450869      -0.022464291550       0.314903758887      -0.149828996089
12 2      -0.813971104705      -2.933161341459      -2.888096066876       0.009552095122       0.492525729811       0.476838429342
13 2      -1.324161767391      -3.159705365197      -1.920587463988      -0.344494222965       0.607358233548      -0.160424397103
14 2      -2.925263420079      -0.932085064640      -2.877031218470       0.128587995332      -0.081131643291       0.039827980133
15 2      -3.434519160118      -2.353885583827      -2.812548658202       0.390149977512       0.174750307660       0.408313742078
16 2      -0.402778606797      -3.770812040044      -3.189939592519      -0.111170492763      -0.283881041948      -0.081033460582
17 2      -3.396648347149      -2.692157685288      -1.261764566262       0.548911347412       0.018602799083       0.129911126073
18 2      -1.124202661026      -3.197832626084      -1.686992922848       0.102692400431      -0.257003111699      -0.308315916006
19 2      -2.511760829854      -3.580521720235      -1.207617002430      -0.622840184300       0.096341756406      -0.040742210850
20 2      -3.794013014732      -0.483042062125      -3.180759848929       0.185164665615       0.244541213259       0.544772779440
21 2      -2.072544496939      -2.184906027155       0.204235217098      -0.525015198480       0.125840018348       0.138456187977
22 2      -1.544555754816      -1.649762389702      -3.458389065142      -0.546969199921      -0.382807312556       0.341394835782
23 2      -3.199205142823      -0.222288653553      -0.143818547267      -0.153481201119       0.349661525700       0.501714165254
24 2      -2.225723494287      -2.989321515425      -2.644073983696      -0.701632077127       1.220410229166       1.102000694747
25 2      -3.071896637387      -0.938595630286      -1.487536228510      -0.337035254382       0.347062178516       0.987889902253
26 2      -1.863859791749       0.344701064120      -1.659303530359       0.283848593391       0.189562381767      -0.635759614357
27 2      -1.659769364462       0.765138364622      -2.014461776904      -0.364310485256       0.253302055942       0.235382002853
28 2      -2.755863789770      -2.526070797595      -2.783978544292       0.715240352544       1.167253665985      -1.250750972632
29 2       0.210750979961      -1.707566307350      -1.546535853300       0.180613901681       0.456069543876      -0.438429777859
30 2      -0.200771948227      -3.163830913815       0.001741843448       0.710137650477       0.165889550965       0.535342910703
31 2      -1.342058431227      -1.699727116861      -3.444989803862       0.347867318492       0.739047066641       0.214283175360
32 2      -1.312918230943      -1.282385694116      -3.561908445277       0.411442633199      -0.267144032308       0.235898884724
33 2      -2.595281074168      -2.654363059575      -3.152404564662       0.661001602267      -0.049584151132       0.948167678182
34 2      -2.777543499784      -2.503111025374      -3.445556456507      -0.682310782195       0.100454401333       1.134517825227
35 2      -1.714224677041      -1.325716437586      -2.981732173174       0.333372905466       0.416935018730       0.730016201032
36 2      -2.945291955883      -1.300797123482      -1.546829365079       1.061533764127      -0.311029724884       0.163127759115
37 2      -1.871299716657      -2.197638380309       0.013568434215      -0.083396990143       0.722693847443       0.260943449760
38 2      -2.330595257720      -2.705551207390      -2.889255927906       0.547047872917      -0.505696359957       0.067974770595
39 2      -1.768744871878       0.618782532909      -1.996213035601       0.260600589996      -0.028060426063      -0.581983316988
40 2       0.440589338140      -1.973584758019      -2.128634808950      -0.270777717793      -0.288438385987      -0.055955177439
41 2      -2.713198744297      -2.475656734832      -2.002541494898       0.069771969457      -1.272138815100       1.253224792478
42 2      -1.423962165179      -2.758536324621      -0.562468230524       0.358948061912      -0.904429244478      -0.437472097516
43 2      -1.399896687629      -1.556749710643      -3.537936985683      -0.356943342053       0.730112518272      -0.049842148784
44 2      -2.463378840291      -2.941032777567      -3.069194800054       0.639191249773      -0.612371428466       0.156175982471
45 2      -2.826833918257      -2.441427813570      -3.117513062579       0.604195629177       0.239147811477      -0.685136265037
46 2      -2.697379764446      -2.568084135417      -2.720962121636      -0.465668015629       0.068842917309      -0.649357494154
47 2      -2.423318951627      -2.716870321921      -2.839812796909      -0.630388429861      -0.723700812089       0.010542325788
48 2      -1.343786116439      -2.815366559345      -0.889433503403      -0.306504004322      -0.974734767407       0.585540747674
49 2      -2.390570846151      -2.767165798983      -3.017194635169      -0.673868685488      -0.772448982336       0.118253551575
50 2       0.233207271083      -1.855301291278      -1.929182206589      -0.255401919504       0.594120003663       0.051019517163
51 2       0.465346265853      -1.847181311426      -1.916789127036       0.207359794994      -0.345438512865      -0.079527329500
52 2      -2.657902388274      -1.336378891744      -1.277970806455       0.196142428831       0.406278132438      -0.691017299452
53 2      -1.647262637241      -2.751813291840      -1.256324005140      -0.850951064754       0.155673162986      -0.535117728927
54 2      -2.652392146668      -1.365803971314      -1.219143299422       0.231415326008       0.468750811406      -0.669356410703
55 2      -1.428998110754      -1.284131096232      -2.911824710615      -0.314934037711       0.143672682499      -0.284551259196
56 2      -2.570056890815      -2.561611130712      -1.923614685448      -0.087344209670      -1.210491168973      -1.404851634279
57 2      -0.837341600398      -3.057999647652      -1.469498799030      -0.332613421371       1.035826652900       0.179674269473
58 2      -1.752566415135      -1.388783347612      -3.476689590009       0.424618561012       0.374096628170       0.637647795156
59 2      -1.385304028397      -1.277881578133      -2.964476810156      -0.347778926729       0.306040236476      -0.241833677619
60 2      -1.630995225084       0.693635304972      -2.081836062321      -0.349756988512       0.372306577275       0.144171240358
61 2       0.204768484909      -1.506645817362      -1.398145758284      -0.002169184837       0.104574627156       1.030012710288
62 2      -1.336589405405      -0.022210673916      -1.369368329244      -0.004183147902       1.050197242139       0.166232731500
63 2       0.000660244727      -1.355280901872      -1.264262651149       0.108090801852       0.087383583772      -1.167459951221
64 2      -1.377349872532       0.130575853949      -1.359136910223       0.016502976563       1.077127535499       0.010021182298
65 1       2.430386333940       1.972642380853       1.793760491216       0.360353103326       0.129075190360       0.064605220102
66 1       1.972898025984       1.998456773090       2.471125354438       0.327320993716       0.270261008387       0.275685201892
67 1      -0.007950168858       1.300559252852       2.001320832816      -0.301575107032      -0.225528372029      -0.580209698895
68 1       1.001533720923       1.278706712715      -0.332730044338       0.367597156276      -0.047093835967       0.026078592801
69 1       1.616350849167       0.385956543210       1.531882126583      -0.105172591874       0.375781270217      -0.158763666416
70 1       1.481507770543       0.191797208109       1.311839899147      -0.138515258785       0.382792651071      -0.239750874873
71 1       1.901740476211       1.947065151371       1.350652872629      -0.467092760048      -0.191419198700       0.324123848366
72 1       0.887058137803       1.242064958900       0.914089345845      -0.095827892281       0.137287784551       0.009260734355
73 1       2.066613780792       1.892750563179       1.513629227734       0.426199720506      -0.495112969847      -0.335157700643
74 1       0.680830463323       1.294267937542       1.041762206703       0.236467338887       0.186522391866      -0.054218094109
75 1       1.661488957363       0.420632362763       1.565679556493      -0.112157975194       0.498701793849      -0.134804317486
76 1       2.025955527861       1.790498081253       1.709991046860      -0.614074632736       0.594317932935      -0.715760854155
77 1       0.776132979838       1.499372782145       0.423756041570      -0.091042196342      -0.262197030304       0.026216650248
78 1      -0.325527998755       1.419810207836       1.503478608575       0.082419996567      -0.243835139544       0.438532271041
79 1       1.603226665210       0.449295605588       1.627246626386       0.129722659901       0.437369855145       0.058587696607
80 1       2.048777159082       1.918194304221       2.063176329977       0.639602902254       0.659376564633       0.734514108688
81 1       2.066431141588       1.878674529749       1.533976136541       0.425807565958      -0.500380617448      -0.338096951877
82 1       2.162847416605       1.946707542358       1.641374745711       0.268513943211      -0.359421855373      -0.284114835910
83 1       2.339217803692       2.033125055047       1.890046707162      -0.361561264421       0.134603532907      -0.342182475834
84 1       1.988127343384       1.795396634952       2.718167752958      -0.075455508942       0.327477248315      -0.518520546874
85 1       0.577620288354       1.202178661753       0.690903374715       0.004508955506      -0.413200358590       0.027049941084
86 1       1.082711076119       1.325373000972      -0.226047040235       0.369573404077      -0.028762851535       0.002197893090
87 1       2.170672480116       2.256686878931       2.260077985332      -0.329710816789       0.334461959459      -0.230119976248
88 1       1.981454995511       1.837919038955       2.718773004989      -0.074215796617       0.350310055521      -0.617002324483
89 1       1.662458328046       2.113871110807       2.546263544716       0.025875715415       0.387608540581       0.612806645647
90 1       2.463023214802       1.964946465582       1.796495840904       0.356618345054       0.123362035505       0.067502169415
91 1       0.758295636306       1.189330097695       0.935384310649      -0.119903185328       0.160423647100      -0.000932244397
92 1       1.846939225947       1.947369396070       2.144948692052      -0.197229485143      -0.400385263170       0.433754007516
93 1      -0.427183068075       1.385983457030       1.472590122637       0.130581766964      -0.122884479363       0.385485406198
94 1       1.245567977550       1.330308996714       0.215790411071      -0.354020530304      -0.327035938385      -0.183236738926
95 1       2.043917002223       1.939463280819       2.018386767080       0.655081995873       0.668812872548       0.758556203130
96 1       1.631844342011       0.616928036025       1.288077622068       0.116019638114       0.150800964663       0.030638738193
97 1       0.570047948790       1.547041801637       1.174211182495       0.148224969158       0.234881955589       0.142277920153
98 1       1.833751482323       1.894041090610       1.807145911749       0.480945921780       0.640586710028       0.593580507984
99 1       2.139079829985       1.687388626529       1.595597612378       0.540130292243      -0.758164471263      -0.444510801730
100 1       1.192837366464       0.034733255735       2.010722947769      -0.196580728024      -0.572104750403      -0.340163460385
101 1       2.053790858793       2.260402821159       1.925915525345      -0.331719278252       0.316861140703      -0.506315735144
102 1       1.230545851030       0.651391094982       0.536305508959      -0.307654713143       0.235463558820      -0.034714082362
103 1       0.963554859808       0.585783635087       1.076933912353      -0.011964632045      -0.161058094949      -0.079239853191
104 1       2.032571241920       2.241306683937       1.912064584139      -0.257320115695      -0.251635925170       0.108276091588
105 1       1.388517794255       0.619204432209       1.096626353150       0.174077729248      -0.041825388479       0.151284843030
106 1       1.708592795258       2.298997039064       1.926883789303       0.345851510676      -0.097912479654      -0.341617357280
107 1       1.387428177066       1.378932722778       0.323872369209      -0.343762883165       0.098352707024      -0.416354551001
108 1       0.479659468050       1.450726266034       1.963704753891      -0.041536037780       0.104143562405      -0.512599581472
109 1       2.120061592455       1.726347134406       2.633598810149       0.012483485910      -0.415204667219       0.291624686289
110 1       1.963739487294       1.840159095429       2.382282895091      -0.261407424565      -0.133354049762       0.062871347818
111 1       1.285618820284       1.441701752708       0.379632721235       0.316738076070       0.095265108462       0.371762440939
112 1       0.365633898355       1.694964301851       1.572497404157       0.162193118704       0.154131272556       0.437190898429
113 1       1.261438870521       0.625046612696       0.933124183602      -0.055211964525       0.200046096083      -0.410958439020
114 1       1.303713498714       1.316278140521       0.002249513558       0.258298404310       0.339779964803      -0.203804105204
115 1       1.999997835040       1.942775370941       2.545853744185      -0.114878040990       0.561163373954      -0.321873471017
116 1       2.031310926274       2.019322469711       1.512275693650      -0.547117081839       0.352209368061      -0.254382002686
117 1       1.774403390735       1.887250009512       1.879788224744       0.577963755689      -0.403801406342      -0.460277946185
118 1       2.068563836310       2.240440955966       1.780934189437       0.169929751069      -0.237263787387      -0.417444057559
119 1       1.182182043053      -0.092885412331       1.919035735800       0.251893104919       0.602416729847      -0.377237320794
120 1       1.504824898391       0.759117809081       0.706230147848      -0.080669319615       0.148013261903      -0.430989357339
121 1       2.130615737015       2.137756435424       1.688634055549       0.520919275637       0.343188345544       0.338170512627
122 1       2.232687506022       1.733848609069       2.632253081752      -0.029093006351       0.658769526386       0.363220896622
123 1       0.462769386612       1.604166086031       1.084998570552      -0.087265009978       0.002292712373       0.205477397075
124 1       0.536669564865       1.789705553748       2.009236707421      -0.053394879413       0.048498349267       0.324113016150
125 1       1.710777387601       2.050383416125       1.630623299477      -0.585995422860      -0.683828013268       0.588343319499
126 1       1.489871028075      -0.231894427424       1.560585425650       0.152226868078      -0.406067280289       0.173938509905
127 1       2.000012837292       2.068308190978       2.617587607841       0.277343703048       0.263384542056       0.218685350582
128 1       2.130062131822       2.041797704752       1.851264622716       0.467406505000       0.282990403229       0.128225853424
129 1       1.378581267925      -0.460258277850       1.579617214316      -0.152996268394       0.468076618688       0.132080798043
130 1       1.802442590594       2.055214298148       2.495030887871       0.135514148553       0.213082891364       0.585273924056
131 1       0.539194232534       1.585943980282       0.764748186089       0.057943112124      -0.491922696208      -0.073985384653
132 1       2.279562870805       2.175368934052       2.134429644356       0.276182185597      -0.134711233026      -0.025428740145
133 1       1.923451643352       2.154596411709       2.215091191749      -0.471041112811       0.488192532410      -0.240701699915
134 1       1.782186330687       2.125614906675       2.068765296788      -0.605516982576       0.531083951265      -0.873431365785
135 1       1.813484286509       1.931088714476       2.256493087555      -0.237841387676      -0.393253678984       0.447823562068
136 1       1.489229359361       0.723936538131       0.578625546009      -0.119933297744       0.171214116931       0.501792733504
137 1       0.113115481265       1.461202496131       1.365366423304       0.123679297349      -0.030610421541      -0.201371154850
138 1       2.097735891193       2.081424022699       1.969484531276       0.312420433099      -0.384897244025      -0.357291786890
139 1       2.213657989462       2.086610992641       2.201352447647      -0.302644416199       0.310254886363      -0.053445028237
140 1       1.568735507988       0.223718310737       1.413596354476      -0.154122107640       0.324011116666      -0.203687573456
141 1       1.246949602188       1.259069746036      -0.110935488492      -0.377100549474      -0.286323385505      -0.259261413862
142 1       1.641594779382       2.101328812606       1.388185046408      -0.478716361838      -0.278525510658       0.497055801671
143 1       1.674975815767       0.355185795256       1.043467942897       0.171446552296       0.266980933841       0.117741592361
144 1       2.098265014411       2.038566386291       2.317865803341       0.334276388312       0.530702694526       0.515116228513
145 1       0.507151600621       1.703784188683       2.183778910397       0.090004009709       0.033527846934      -0.274125133288
146 1       0.361392645271       1.127040676813       1.134563735619       0.048548721117       0.145276318961      -0.032960580367
147 1       2.263405354450       2.253639873083       2.329549731915      -0.356364712849       0.337786224844      -0.248902006074
148 1       0.317807618602       1.474518623567       1.351997972754      -0.064480355651       0.258779252116      -0.170941886739
149 1      -0.319423356121       1.477527232689       1.354751932345      -0.196553587439      -0.129270237472      -0.438549469503
150 1       1.831921546909       2.017013016700       2.614042847900       0.146573272465      -0.452540163806      -0.223744647001
151 1       2.501049063724       2.129590508103       1.917715545315      -0.206049881674       0.088386327235      -0.074863238486
152 1       2.077272409827       2.167103099511       1.769481192650      -0.537629876016       0.597748519436      -0.432868297481
153 1       1.943202396162       1.825570435005       2.348320748691       0.286977643597       0.226224374290       0.286901129871
154 1       1.540016190356       0.854842995152       0.474443193090       0.178837755496       0.180406271560       0.477232244716
155 1       1.375500005220       1.118890974877      -0.248650156165      -0.291847236611      -0.051687235784       0.115435950221
156 1       1.716422772566       1.917507658499       1.538032183734      -0.462506012694      -0.263657119384       0.598516333030
157 1       2.080847845451       1.975278828306       2.219937656411      -0.191180491860      -0.344637520756       0.396255606361
158 1       0.807395347035       1.483398242195       0.501601917001      -0.116872534467      -0.392425202929       0.068885816358
159 1       1.424076014355       0.806188269364       0.619549459877       0.170749857703       0.145051753290       0.137410452640
160 1       1.733869423139       0.519390029828       1.945200645789       0.088081302856       0.265633720342       0.220695541111
