ITEM: TIMESTEP
0
ITEM: NUMBER OF ATOMS
160
ITEM: BOX BOUNDS xy xz yz pp pp pp
-2.7801262623470002e+00 1.2452446319501000e+01 0.0000000000000000e+00
0.0000000000000000e+00 1.2331872000000001e+01 -2.7801262623470002e+00
0.0000000000000000e+00 1.1418740792761000e+01 0.0000000000000000e+00
ITEM: ATOMS id type x y z fx fy fz
1 2       1.535766653397       1.541480000000       1.793300464595      -0.001570326946       0.000066612168       0.084821020448
2 2       3.300389619681       0.000000000000       3.916070561251       0.001587430867      -0.000015446184      -0.084851714512
3 2       0.015186149148       0.000000000000       4.537727309620       0.006194349083      -0.000019155067      -0.037654517724
4 2       4.820970123930       1.541480000000       1.171643716226      -0.006165554811       0.000088971081       0.037650515589
5 2       7.761997193177       0.000000000000       1.793297629959      -0.001607462550      -0.000015445047       0.084844395916
6 2       9.526608077693       1.541480000000       3.916075077184       0.001612516187       0.000066608783      -0.084838933235
7 2       6.241416688928       1.541480000000       4.537724474985       0.006103734066       0.000088966113      -0.037560344246
8 2      11.047190947542       0.000000000000       1.171638515990      -0.006191928779      -0.000019154451       0.037677886327
9 2       0.145704468463       1.541480000000       7.502666974508      -0.001574576742       0.000066606184       0.084849503693
10 2       1.910327434748       0.000000000000       9.625437071165       0.001566388218      -0.000015445581      -0.084775986682
11 2      -1.374876035786       0.000000000000      10.247093819534       0.006181964882      -0.000019154778      -0.037499875347
12 2       3.430907938997       1.541480000000       6.881010226139      -0.006156624511       0.000088968809       0.037652607617
13 2       6.371932642643       0.000000000000       7.502673856041      -0.001606833131      -0.000015446237       0.084748014765
14 2       8.136545892759       1.541480000000       9.625441587097       0.001612392241       0.000066614726      -0.084809047560
15 2       4.851352138394       1.541480000000      10.247100701067       0.006134865752       0.000088968944      -0.037665507445
16 2       9.657126397008       0.000000000000       6.881014742072      -0.006192032183      -0.000019155245       0.037639697437
17 2       1.535766653397       4.624450000000       1.793300464595      -0.001566723743       0.000049493149       0.084822220190
18 2       3.300389619681       3.082970000000       3.916070561251       0.001587421869      -0.000048070875      -0.084838260386
19 2       0.015186149148       3.082970000000       4.537727309620       0.006159870634      -0.000075084842      -0.037659777259
20 2       4.820970123930       4.624450000000       1.171643716226      -0.006161055061       0.000075253165       0.037653030580
21 2       7.761997193177       3.082970000000       1.793297629959      -0.001607456532      -0.000048065285       0.084830937543
22 2       9.526608077693       4.624450000000       3.916075077184       0.001608912273       0.000049490559      -0.084840135752
23 2       6.241416688928       4.624450000000       4.537724474985       0.006099232106       0.000075252433      -0.037562857161
24 2      11.047190947542       3.082970000000       1.171638515990      -0.006157450161      -0.000075084103       0.037683148379
25 2       0.145704468463       4.624450000000       7.502666974508      -0.001570973698       0.000049490083       0.084850704547
26 2       1.910327434748       3.082970000000       9.625437071165       0.001566380219      -0.000048067663      -0.084762536661
27 2      -1.374876035786       3.082970000000      10.247093819534       0.006147487333      -0.000075084210      -0.037505135452
28 2       3.430907938997       4.624450000000       6.881010226139      -0.006152125883       0.000075252536       0.037655120031
29 2       6.371932642643       3.082970000000       7.502673856041      -0.001606826896      -0.000048066625       0.084734563102
30 2       8.136545892759       4.624450000000       9.625441587097       0.001608787879       0.000049493292      -0.084810248375
31 2       4.851352138394       4.624450000000      10.247100701067       0.006130366722       0.000075253329      -0.037668020087
32 2       9.657126397008       3.082970000000       6.881014742072      -0.006157553168      -0.000075083698       0.037644958041
33 2       1.535766653397       7.707420000000       1.793300464595      -0.001567640676       0.000000162462       0.084838883720
34 2       3.300389619681       6.165940000000       3.916070561251       0.001591042405      -0.000070894327      -0.084837648762
35 2       0.015186149148       6.165940000000       4.537727309620       0.006163776107      -0.000092399300      -0.037657308795
36 2       4.820970123930       7.707420000000       1.171643716226      -0.006205129909       0.000000672584       0.037645837745
37 2       7.761997193177       6.165940000000       1.793297629959      -0.001611078562      -0.000070888641       0.084830323369
38 2       9.526608077693       7.707420000000       3.916075077184       0.001609823491       0.000000161860      -0.084856801427
39 2       6.241416688928       7.707420000000       4.537724474985       0.006143307690       0.000000672551      -0.037555663207
40 2      11.047190947542       6.165940000000       1.171638515990      -0.006161354628      -0.000092396291       0.037680679514
41 2       0.145704468463       7.707420000000       7.502666974508      -0.001571889993       0.000000161858       0.084867372878
42 2       1.910327434748       6.165940000000       9.625437071165       0.001570002920      -0.000070891302      -0.084761926526
43 2      -1.374876035786       6.165940000000      10.247093819534       0.006151395949      -0.000092397856      -0.037502667532
44 2       3.430907938997       7.707420000000       6.881010226139      -0.006196201282       0.000000672579       0.037647931042
45 2       6.371932642643       6.165940000000       7.502673856041      -0.001610449044      -0.000070894600       0.084733949700
46 2       8.136545892759       7.707420000000       9.625441587097       0.001609701900       0.000000162465      -0.084826914899
47 2       4.851352138394       7.707420000000      10.247100701067       0.006174442911       0.000000672587      -0.037660827210
48 2       9.657126397008       6.165940000000       6.881014742072      -0.006161460279      -0.000092400245       0.037642486901
49 2       1.535766653397      10.790390000000       1.793300464595      -0.001568931007      -0.000060976521       0.084818906701
50 2       3.300389619681       9.248900000000       3.916070561251       0.001589510226       0.000079119176      -0.084838583912
51 2       0.015186149148       9.248900000000       4.537727309620       0.006161424808       0.000094993172      -0.037658417946
52 2       4.820970123930      10.790390000000       1.171643716226      -0.006154383272      -0.000073252295       0.037652877793
53 2       7.761997193177       9.248900000000       1.793297629959      -0.001609546168       0.000079116384       0.084831259665
54 2       9.526608077693      10.790390000000       3.916075077184       0.001611121520      -0.000060976675      -0.084836820039
55 2       6.241416688928      10.790390000000       4.537724474985       0.006092562424      -0.000073247538      -0.037562706685
56 2      11.047190947542       9.248900000000       1.171638515990      -0.006159003558       0.000094989734       0.037681788749
57 2       0.145704468463      10.790390000000       7.502666974508      -0.001573181041      -0.000060974167       0.084847389936
58 2       1.910327434748       9.248900000000       9.625437071165       0.001568470371       0.000079115069      -0.084762861586
59 2      -1.374876035786       9.248900000000      10.247093819534       0.006149044052       0.000094991684      -0.037503776583
60 2       3.430907938997      10.790390000000       6.881010226139      -0.006145452878      -0.000073250202       0.037654969052
61 2       6.371932642643       9.248900000000       7.502673856041      -0.001608916624       0.000079119235       0.084734885418
62 2       8.136545892759      10.790390000000       9.625441587097       0.001610996892      -0.000060979037      -0.084806933249
63 2       4.851352138394      10.790390000000      10.247100701067       0.006123693943      -0.000073250077      -0.037667869640
64 2       9.657126397008       9.248900000000       6.881014742072      -0.006159108658       0.000094994486       0.037643596579
65 1       5.819562749402       0.000000000000       1.465017681080       0.005745993932      -0.000020202729      -0.004835880985
66 1      -0.983406476324       1.541480000000       4.244353344766      -0.005676972815       0.000101163694       0.004870756887
67 1       1.377707446014       0.000000000000       3.221280508384      -0.046058387618      -0.000006023552       0.009086636823
68 1       3.458448827064       1.541480000000       2.488090517462       0.046070841137       0.000033490812      -0.009069096453
69 1       2.951153019883       1.541480000000       5.086742467919      -0.021515409784       0.000056190053       0.028942685846
70 1       1.885003253195       0.000000000000       0.622628557927       0.021502436556      -0.000010326445      -0.029016651622
71 1      12.045781207413       1.541480000000       1.465022197013       0.005684831642       0.000101163742      -0.004900207561
72 1       5.242824063457       0.000000000000       4.244350510130      -0.005760955909      -0.000020202745       0.004857890844
73 1       7.603935620194       1.541480000000       3.221287389917      -0.046035435444       0.000033484660       0.008931669707
74 1       9.684669650675       0.000000000000       2.488085317226       0.046066455074      -0.000006022993      -0.009006753603
75 1       9.177371477895       0.000000000000       5.086746983852      -0.021495605052      -0.000010327256       0.028907126140
76 1       8.111233792975       1.541480000000       0.622625723291       0.021495570160       0.000056194593      -0.028881029507
77 1       4.429498198868       0.000000000000       7.174393907162       0.005733573968      -0.000020202380      -0.004876000181
78 1      -2.373468661257       1.541480000000       9.953719854679      -0.005691653181       0.000101164534       0.004890163823
79 1      -0.012357104519       0.000000000000       8.930656734466      -0.045972506247      -0.000006021405       0.008946102679
80 1       2.068386642130       1.541480000000       8.197457027375       0.046028542246       0.000033491625      -0.009021296767
81 1       1.561088469350       1.541480000000      10.796118694001      -0.021501202698       0.000056189981       0.028816998934
82 1       0.494941068261       0.000000000000       6.331995067840       0.021538541917      -0.000010326180      -0.028898667462
83 1      10.655719022480       1.541480000000       7.174388706926       0.005688582809       0.000101164404      -0.004866920078
84 1       3.852759512923       0.000000000000       9.953726736212      -0.005728808326      -0.000020202571       0.004836837030
85 1       6.213873435261       1.541480000000       8.930653899830      -0.046113180370       0.000033493139       0.009027911327
86 1       8.294605100142       0.000000000000       8.197461543308       0.046114311716      -0.000006024003      -0.009084223168
87 1       7.787309292961       0.000000000000      10.796113493765      -0.021512627849      -0.000010326799       0.028943509285
88 1       6.721171608042       1.541480000000       6.331992233204       0.021464776104       0.000056196977      -0.028829272950
89 1       5.819562749402       3.082970000000       1.465017681080       0.005713492541      -0.000092098510      -0.004848513199
90 1      -0.983406476324       4.624450000000       4.244353344766      -0.005679189525       0.000091439226       0.004868072658
91 1       1.377707446014       3.082970000000       3.221280508384      -0.046056665609      -0.000026488766       0.009080978824
92 1       3.458448827064       4.624450000000       2.488090517462       0.046064980359       0.000025759746      -0.009070061214
93 1       2.951153019883       4.624450000000       5.086742467919      -0.021515739479       0.000047610771       0.028939785176
94 1       1.885003253195       3.082970000000       0.622628557927       0.021488015452      -0.000048186811      -0.029001040346
95 1      12.045781207413       4.624450000000       1.465022197013       0.005687048421       0.000091439210      -0.004897523390
96 1       5.242824063457       3.082970000000       4.244350510130      -0.005728457239      -0.000092098629       0.004870522110
97 1       7.603935620194       4.624450000000       3.221287389917      -0.046029571209       0.000025755920       0.008932633590
98 1       9.684669650675       3.082970000000       2.488085317226       0.046064732314      -0.000026484530      -0.009001100307
99 1       9.177371477895       3.082970000000       5.086746983852      -0.021481188889      -0.000048192858       0.028891517131
100 1       8.111233792975       4.624450000000       0.622625723291       0.021495899628       0.000047615930      -0.028878128655
101 1       4.429498198868       3.082970000000       7.174393907162       0.005701075383      -0.000092098912      -0.004888631743
102 1      -2.373468661257       4.624450000000       9.953719854679      -0.005693869871       0.000091439905       0.004887479810
103 1      -0.012357104519       3.082970000000       8.930656734466      -0.045970784151      -0.000026484742       0.008940448806
104 1       2.068386642130       4.624450000000       8.197457027375       0.046022681442       0.000025760816      -0.009022261157
105 1       1.561088469350       4.624450000000      10.796118694001      -0.021501532463       0.000047610268       0.028814098763
106 1       0.494941068261       3.082970000000       6.331995067840       0.021524119477      -0.000048187088      -0.028883057207
107 1      10.655719022480       4.624450000000       7.174388706926       0.005690799626       0.000091439905      -0.004864235831
108 1       3.852759512923       3.082970000000       9.953726736212      -0.005696308583      -0.000092097884       0.004849469345
109 1       6.213873435261       4.624450000000       8.930653899830      -0.046107317829       0.000025759189       0.009028876751
110 1       8.294605100142       3.082970000000       8.197461543308       0.046112591128      -0.000026487611      -0.009078565858
111 1       7.787309292961       3.082970000000      10.796113493765      -0.021498210476      -0.000048190587       0.028927898110
112 1       6.721171608042       4.624450000000       6.331992233204       0.021465105645       0.000047616201      -0.028826373566
113 1       5.819562749402       6.165940000000       1.465017681080       0.005711846750      -0.000103596510      -0.004851342683
114 1      -0.983406476324       7.707420000000       4.244353344766      -0.005719407181       0.000000012570       0.004852988235
115 1       1.377707446014       6.165940000000       3.221280508384      -0.046063583071      -0.000035424335       0.009079910275
116 1       3.458448827064       7.707420000000       2.488090517462       0.046068861791      -0.000000599008      -0.009076866198
117 1       2.951153019883       7.707420000000       5.086742467919      -0.021533662687      -0.000001100270       0.028959990742
118 1       1.885003253195       6.165940000000       0.622628557927       0.021487597066      -0.000058335155      -0.029003799673
119 1      12.045781207413       7.707420000000       1.465022197013       0.005727261381       0.000000012563      -0.004882442587
120 1       5.242824063457       6.165940000000       4.244350510130      -0.005726811213      -0.000103596532       0.004873351651
121 1       7.603935620194       7.707420000000       3.221287389917      -0.046033452351      -0.000000599573       0.008939432000
122 1       9.684669650675       6.165940000000       2.488085317226       0.046071651883      -0.000035421680      -0.009000031066
123 1       9.177371477895       6.165940000000       5.086746983852      -0.021480772386      -0.000058339206       0.028894278751
124 1       8.111233792975       7.707420000000       0.622625723291       0.021513819163      -0.000001100282      -0.028898332294
125 1       4.429498198868       6.165940000000       7.174393907162       0.005699427889      -0.000103594764      -0.004891459740
126 1      -2.373468661257       7.707420000000       9.953719854679      -0.005734087023       0.000000012558       0.004872398708
127 1      -0.012357104519       6.165940000000       8.930656734466      -0.045977704273      -0.000035413658       0.008939382519
128 1       2.068386642130       7.707420000000       8.197457027375       0.046026564540      -0.000000599000      -0.009029066019
129 1       1.561088469350       7.707420000000      10.796118694001      -0.021519456408      -0.000001100050       0.028834300101
130 1       0.494941068261       6.165940000000       6.331995067840       0.021523702669      -0.000058333823      -0.028885818649
131 1      10.655719022480       7.707420000000       7.174388706926       0.005731014219       0.000000012580      -0.004849154022
132 1       3.852759512923       6.165940000000       9.953726736212      -0.005694662266      -0.000103595654       0.004852299306
133 1       6.213873435261       7.707420000000       8.930653899830      -0.046111198444      -0.000000599019       0.009035679849
134 1       8.294605100142       6.165940000000       8.197461543308       0.046119510890      -0.000035426745      -0.009077496336
135 1       7.787309292961       6.165940000000      10.796113493765      -0.021497793811      -0.000058336920       0.028930660018
136 1       6.721171608042       7.707420000000       6.331992233204       0.021483026840      -0.000001100062      -0.028846574338
137 1       5.819562749402       9.248900000000       1.465017681080       0.005713203899       0.000104028422      -0.004850296867
138 1      -0.983406476324      10.790390000000       4.244353344766      -0.005670471234      -0.000080747852       0.004873053530
139 1       1.377707446014       9.248900000000       3.221280508384      -0.046061826102       0.000036372747       0.009080248626
140 1       3.458448827064      10.790390000000       2.488090517462       0.046069503415      -0.000027087729      -0.009067922237
141 1       2.951153019883      10.790390000000       5.086742467919      -0.021511820884      -0.000046803864       0.028937459653
142 1       1.885003253195       9.248900000000       0.622628557927       0.021487677130       0.000060951475      -0.029002457986
143 1      12.045781207413      10.790390000000       1.465022197013       0.005678331042      -0.000080747986      -0.004902503424
144 1       5.242824063457       9.248900000000       4.244350510130      -0.005728168459       0.000104028457       0.004872305806
145 1       7.603935620194      10.790390000000       3.221287389917      -0.046034097720      -0.000027085016       0.008930495977
146 1       9.684669650675       9.248900000000       2.488085317226       0.046069894478       0.000036373099      -0.009000369046
147 1       9.177371477895       9.248900000000       5.086746983852      -0.021480852041       0.000060955111       0.028892936588
148 1       8.111233792975      10.790390000000       0.622625723291       0.021491981950      -0.000046807428      -0.028875803693
149 1       4.429498198868       9.248900000000       7.174393907162       0.005700785403       0.000104026341      -0.004890414185
150 1      -2.373468661257      10.790390000000       9.953719854679      -0.005685151733      -0.000080748617       0.004892459770
151 1      -0.012357104519       9.248900000000       8.930656734466      -0.045975946669       0.000036363445       0.008939719874
152 1       2.068386642130      10.790390000000       8.197457027375       0.046027204200      -0.000027088278      -0.009020122557
153 1       1.561088469350      10.790390000000      10.796118694001      -0.021497613705      -0.000046802796       0.028811773855
154 1       0.494941068261       9.248900000000       6.331995067840       0.021523782420       0.000060949787      -0.028884476527
155 1      10.655719022480      10.790390000000       7.174388706926       0.005682081843      -0.000080748421      -0.004869216183
156 1       3.852759512923       9.248900000000       9.953726736212      -0.005696019568       0.000104027572       0.004851253395
157 1       6.213873435261      10.790390000000       8.930653899830      -0.046111842860      -0.000027090099       0.009026737495
158 1       8.294605100142       9.248900000000       8.197461543308       0.046117753475       0.000036375877      -0.009077834906
159 1       7.787309292961       9.248900000000      10.796113493765      -0.021497873512       0.000060952800       0.028929317770
160 1       6.721171608042      10.790390000000       6.331992233204       0.021461187635      -0.000046808656      -0.028824047948
