ITEM: TIMESTEP
0
ITEM: NUMBER OF ATOMS
160
ITEM: BOX BOUNDS xy xz yz pp pp pp
-2.7801262623470002e+00 1.2452446319501000e+01 0.0000000000000000e+00
0.0000000000000000e+00 1.2331872000000001e+01 -2.7801262623470002e+00
0.0000000000000000e+00 1.1418740792761000e+01 0.0000000000000000e+00
ITEM: ATOMS id type v_vir_xx v_vir_yy v_vir_zz v_vir_xy v_vir_xz v_vir_yz
1 2      -1.178749842073      -0.439556719329      -3.472267476982       0.000000852782       0.430136834625      -0.000010896999
2 2      -1.178746438757      -0.439581132573      -3.472314589979       0.000000987492       0.430142969208      -0.000002315840
3 2      -2.827644138992      -2.706609780038      -1.065545917904       0.000007211030       0.051504461169       0.000002914018
4 2      -2.827617894265      -2.706564203534      -1.065540777860       0.000037225346       0.051506684157       0.000013350373
5 2      -1.178812170384      -0.439599216810      -3.472228940306      -0.000000987488       0.430109335278       0.000002316610
6 2      -1.178816982196      -0.439569074715      -3.472183437396      -0.000000850015       0.430094784693       0.000010898529
7 2      -2.827692430867      -2.706550193043      -1.065546669824      -0.000037229458       0.051532693422      -0.000013348115
8 2      -2.827686027015      -2.706596221200      -1.065565126489      -0.000007210766       0.051484344191      -0.000002914628
9 2      -1.178717718479      -0.439558686415      -3.472162960520       0.000000852725       0.430122707702      -0.000010902765
10 2      -1.178723489285      -0.439508011437      -3.472163646020       0.000000988149       0.430112896491      -0.000002315851
11 2      -2.827693326664      -2.706584865511      -1.065528929858       0.000007211980       0.051558777270       0.000002913995
12 2      -2.827591361809      -2.706556529569      -1.065517465734       0.000037224219       0.051506486334       0.000013343622
13 2      -1.178849735533      -0.439558319244      -3.472205560410      -0.000000987525       0.430091758782       0.000002315124
14 2      -1.178864363433      -0.439622283399      -3.472320544171      -0.000000852165       0.430123170405       0.000010897761
15 2      -2.827654386177      -2.706578528257      -1.065536629691      -0.000037225393       0.051489370154      -0.000013347169
16 2      -2.827698411855      -2.706619287945      -1.065571811941      -0.000007211751       0.051494130376      -0.000002915176
17 2      -1.178751964365      -0.439526262192      -3.472266126007      -0.000002288523       0.430133990412      -0.000006925773
18 2      -1.178706354082      -0.439539538321      -3.472271303744      -0.000003070269       0.430147524527      -0.000007540977
19 2      -2.827611352779      -2.706544335798      -1.065528575001       0.000035424841       0.051509334372       0.000009589822
20 2      -2.827613418859      -2.706537714727      -1.065542998143       0.000036075655       0.051507125834       0.000009760400
21 2      -1.178772090049      -0.439557627350      -3.472185656063       0.000003072702       0.430113889913       0.000007545460
22 2      -1.178819104144      -0.439538606579      -3.472182086285       0.000002292914       0.430091941682       0.000006927496
23 2      -2.827687957357      -2.706523710512      -1.065548891203      -0.000036076471       0.051533136644      -0.000009761244
24 2      -2.827653242117      -2.706530776690      -1.065547783421      -0.000035424998       0.051489213684      -0.000009592108
25 2      -1.178719840915      -0.439528222171      -3.472161609627      -0.000002288573       0.430119863029      -0.000006929494
26 2      -1.178683405256      -0.439466419657      -3.472120364771      -0.000003070337       0.430117451940      -0.000007537995
27 2      -2.827660540057      -2.706519421413      -1.065511588436       0.000035424635       0.051563650489       0.000009590259
28 2      -2.827586887103      -2.706530043206      -1.065519689799       0.000036076119       0.051506926519       0.000009757265
29 2      -1.178809656384      -0.439516729397      -3.472162278834       0.000003072870       0.430096312567       0.000007539033
30 2      -1.178866484755      -0.439591822775      -3.472319193397       0.000002291089       0.430120327178       0.000006927722
31 2      -2.827649911895      -2.706552043061      -1.065538853871      -0.000036076784       0.051489810417      -0.000009760669
32 2      -2.827665626871      -2.706553845088      -1.065554471469      -0.000035425991       0.051499000981      -0.000009591377
33 2      -1.178801675613      -0.439586979839      -3.472320630866       0.000000044702       0.430129194020      -0.000000537122
34 2      -1.178704776553      -0.439574455229      -3.472272893666       0.000001638238       0.430151115161      -0.000011890111
35 2      -2.827616281535      -2.706573691783      -1.065527270939       0.000037510494       0.051509260336       0.000014244231
36 2      -2.827655635224      -2.706626860419      -1.065564347628      -0.000001014383       0.051501016995      -0.000000087994
37 2      -1.178770513541      -0.439592553799      -3.472187245618      -0.000001638487       0.430117479294       0.000011893839
38 2      -1.178868811808      -0.439599322116      -3.472236594276      -0.000000044683       0.430087147867       0.000000537598
39 2      -2.827730172762      -2.706612855789      -1.065570241049       0.000001014368       0.051527028988       0.000000088008
40 2      -2.827658168073      -2.706560129314      -1.065546478952      -0.000037509097       0.051489139223      -0.000014247284
41 2      -1.178769553127      -0.439588936958      -3.472216113761       0.000000044721       0.430115065280      -0.000000537569
42 2      -1.178681826672      -0.439501333043      -3.472121953103       0.000001641596       0.430121040912      -0.000011890229
43 2      -2.827665468276      -2.706548776485      -1.065510288744       0.000037515189       0.051563572802       0.000014244161
44 2      -2.827629101362      -2.706619187683      -1.065541038673      -0.000001014378       0.051500816330      -0.000000088001
45 2      -1.178808080285      -0.439551649745      -3.472163869340      -0.000001638673       0.430099901616       0.000011886419
46 2      -1.178916190189      -0.439652539555      -3.472373700194      -0.000000044643       0.430115531846       0.000000537190
47 2      -2.827692126936      -2.706641188465      -1.065560204640       0.000001014386       0.051483703845       0.000000088012
48 2      -2.827670555908      -2.706583204474      -1.065553172273      -0.000037514021       0.051498924833      -0.000014250028
49 2      -1.178741374957      -0.439540244398      -3.472256440052      -0.000003727976       0.430137842843       0.000006575923
50 2      -1.178706075611      -0.439564587076      -3.472272484988      -0.000004675651       0.430150429099       0.000009961480
51 2      -2.827614688831      -2.706564389692      -1.065528879652      -0.000041777759       0.051509711177      -0.000015826080
52 2      -2.827608541985      -2.706541229585      -1.065538529896      -0.000033917825       0.051508561044      -0.000012099699
53 2      -1.178771812450      -0.439582679649      -3.472186836620       0.000004676327       0.430116793452      -0.000009963033
54 2      -1.178808515844      -0.439552594062      -3.472172399247       0.000003725901       0.430095792278      -0.000006574753
55 2      -2.827683078754      -2.706527219219      -1.065544421877       0.000033921831       0.051534570092       0.000012097293
56 2      -2.827656575924      -2.706550827940      -1.065548087820       0.000041776112       0.051489590154       0.000015829293
57 2      -1.178709251242      -0.439542206086      -3.472151923216      -0.000003727831       0.430123716134       0.000006578715
58 2      -1.178683125939      -0.439491467413      -3.472121544873      -0.000004679509       0.430120355224       0.000009961480
59 2      -2.827663875671      -2.706539474562      -1.065511896620      -0.000041783393       0.051564024383      -0.000015825883
60 2      -2.827582009955      -2.706533555818      -1.065515217941      -0.000033916584       0.051508363515      -0.000012093619
61 2      -1.178809379071      -0.439541782737      -3.472163460661       0.000004676496       0.430099215891      -0.000009956726
62 2      -1.178855897547      -0.439605809157      -3.472309507021       0.000003727951       0.430124178361      -0.000006576052
63 2      -2.827645034160      -2.706555554482      -1.065534381526       0.000033917731       0.051491246600       0.000012096537
64 2      -2.827668963137      -2.706573901756      -1.065554780034       0.000041781847       0.051499376101       0.000015832759
65 1       1.463845428131       0.232856643073      -0.146993073105       0.000007425369       0.449412097137       0.000002030596
66 1       1.463861751453       0.232883767103      -0.146994302550       0.000045022317       0.449417773478       0.000012585579
67 1       1.609627052334       1.252627303393       2.847050078789       0.000000238351      -0.241847128801      -0.000000049806
68 1       1.609654954441       1.252619349472       2.847064928618       0.000010578857      -0.241854202902       0.000002375800
69 1       0.645437046588       1.461954027029       1.623023771743       0.000004816367      -0.618935930947      -0.000011385378
70 1       0.645403376795       1.461946174671       1.623051173377       0.000000937396      -0.618910874276      -0.000002381879
71 1       1.463830661193       0.232868666225      -0.146963375479      -0.000045018898       0.449431317251      -0.000012583178
72 1       1.463799841642       0.232829121467      -0.146979248884      -0.000007424848       0.449403632819      -0.000002030433
73 1       1.609628474985       1.252618510301       2.847026023229      -0.000010574188      -0.241792151263      -0.000002368882
74 1       1.609626029928       1.252598025059       2.847051978167      -0.000000237488      -0.241833223890       0.000000051495
75 1       0.645358995880       1.461938570625       1.622970954545      -0.000000937183      -0.618920231085       0.000002382097
76 1       0.645388346126       1.461925259679       1.622981953187      -0.000004813941      -0.618946049013       0.000011383930
77 1       1.463829649178       0.232858706652      -0.146958433738       0.000007424232       0.449426362895       0.000002031019
78 1       1.463849706200       0.232881482850      -0.146956670253       0.000045022219       0.449421726081       0.000012583734
79 1       1.609591368240       1.252628693333       2.847018284603       0.000000237487      -0.241797253774      -0.000000050383
80 1       1.609639982149       1.252618908082       2.847061232683       0.000010577147      -0.241823632518       0.000002376446
81 1       0.645401938355       1.461930496641       1.622994470504       0.000004816884      -0.618966568087      -0.000011382576
82 1       0.645423351153       1.461965363754       1.622989854697       0.000000938207      -0.618943985277      -0.000002382311
83 1       1.463870816879       0.232886134873      -0.146964551496      -0.000045019984       0.449419017300      -0.000012583739
84 1       1.463832011908       0.232851655844      -0.146976661318      -0.000007424947       0.449409557216      -0.000002030435
85 1       1.609673315478       1.252627819008       2.847070307429      -0.000010576781      -0.241855790617      -0.000002373295
86 1       1.609660653274       1.252638914921       2.847051922172      -0.000000237823      -0.241854724262       0.000000050275
87 1       0.645396042106       1.461977003792       1.622979621501      -0.000000937380      -0.618923134436       0.000002382576
88 1       0.645373380359       1.461934126012       1.622996432990      -0.000004815488      -0.618927516054       0.000011381137
89 1       1.463878326026       0.232910726861      -0.146996090643       0.000046556936       0.449424195081       0.000014283619
90 1       1.463860054206       0.232908824904      -0.146998434254       0.000045674623       0.449419026962       0.000013888780
91 1       1.609639714375       1.252629770052       2.847062315967       0.000016565122      -0.241847844202       0.000004031385
92 1       1.609650573035       1.252630336564       2.847056079680       0.000015875765      -0.241851681079       0.000004040118
93 1       0.645433037244       1.461980646846       1.623018393477       0.000006894195      -0.618936907500      -0.000012513727
94 1       0.645409592497       1.461944668747       1.623064951919       0.000007042922      -0.618912278259      -0.000011989844
95 1       1.463828964397       0.232893724411      -0.146967506974      -0.000045670982       0.449432570971      -0.000013886035
96 1       1.463832737094       0.232883205147      -0.146982265726      -0.000046554305       0.449415732002      -0.000014282621
97 1       1.609624094314       1.252629505944       2.847017175997      -0.000015876157      -0.241789628176      -0.000004035012
98 1       1.609638691696       1.252600488215       2.847064212935      -0.000016564133      -0.241833939703      -0.000004026416
99 1       0.645365217415       1.461937068317       1.622984736056      -0.000007038520      -0.618921636901       0.000011987548
100 1       0.645384336526       1.461951878750       1.622976574807      -0.000006891345      -0.618947025353       0.000012512173
101 1       1.463862547790       0.232912791252      -0.146961451809       0.000046553696       0.449438458522       0.000014283106
102 1       1.463848009161       0.232906541012      -0.146960801607       0.000045674472       0.449422979589       0.000013886501
103 1       1.609604029831       1.252631159331       2.847030518978       0.000016564488      -0.241797969472       0.000004027482
104 1       1.609635600725       1.252629894733       2.847052383297       0.000015874169      -0.241821110631       0.000004040377
105 1       0.645397928902       1.461957112519       1.622989091880       0.000006894587      -0.618967544792      -0.000012510766
106 1       0.645429566612       1.461963858302       1.623003632654       0.000007044265      -0.618945388313      -0.000011988966
107 1       1.463869119960       0.232911192682      -0.146968683099      -0.000045672271       0.449420270859      -0.000013886985
108 1       1.463864909635       0.232905739448      -0.146979678586      -0.000046555196       0.449421655282      -0.000014283271
109 1       1.609668935926       1.252638811172       2.847061458697      -0.000015876610      -0.241853268221      -0.000004038700
110 1       1.609673314025       1.252641379866       2.847064160274      -0.000016566148      -0.241855439391      -0.000004030321
111 1       0.645402260395       1.461975500211       1.622993401837      -0.000007039696      -0.618924539740       0.000011989563
112 1       0.645369370468       1.461960743476       1.622991055824      -0.000006892711      -0.618928492449       0.000012510500
113 1       1.463880002388       0.232881974876      -0.146991907830       0.000044858822       0.449423378074       0.000012259899
114 1       1.463819353430       0.232834034933      -0.146993613487      -0.000001051466       0.449403700671      -0.000000132049
115 1       1.609644582975       1.252613929873       2.847073056264       0.000009253760      -0.241850536406       0.000001961183
116 1       1.609635962044       1.252623295022       2.847043468831      -0.000001328426      -0.241851460765      -0.000000562030
117 1       0.645426313830       1.461973885065       1.623002777865       0.000000248077      -0.618934972602       0.000000319714
118 1       0.645413779777       1.461910099194       1.623071376407       0.000004291456      -0.618911560400      -0.000011099029
119 1       1.463788267210       0.232818934906      -0.146962688973       0.000001051443       0.449417242983       0.000000132030
120 1       1.463834412915       0.232854453008      -0.146978082855      -0.000044856201       0.449414914874      -0.000012259072
121 1       1.609609485306       1.252622465977       2.847004568008       0.000001328358      -0.241789407447       0.000000562433
122 1       1.609643557983       1.252584636141       2.847074951929      -0.000009249391      -0.241836632537      -0.000001952738
123 1       0.645369403278       1.461902501452       1.622991162331      -0.000004290282      -0.618920919294       0.000011099924
124 1       0.645377607962       1.461945113521       1.622960954987      -0.000000248087      -0.618945089832      -0.000000319717
125 1       1.463864226127       0.232884042450      -0.146957266734       0.000044853138       0.449437639421       0.000012262017
126 1       1.463807309191       0.232831750847      -0.146955982612      -0.000001051466       0.449407654053      -0.000000132018
127 1       1.609608899698       1.252615320524       2.847041259471       0.000009249565      -0.241800663193       0.000001958131
128 1       1.609620989094       1.252622852430       2.847039771672      -0.000001328439      -0.241820887769      -0.000000562023
129 1       0.645391203298       1.461950351559       1.622973475804       0.000000248107      -0.618965610814       0.000000319561
130 1       0.645433752246       1.461929290931       1.623010058765       0.000004295406      -0.618944670390      -0.000011100997
131 1       1.463828421339       0.232836402258      -0.146963865996       0.000001051455       0.449404942768       0.000000132047
132 1       1.463866585516       0.232876987701      -0.146975495031      -0.000044856740       0.449420838344      -0.000012259101
133 1       1.609654327338       1.252631770234       2.847048846753       0.000001328388      -0.241853046866       0.000000562029
134 1       1.609678180396       1.252625533696       2.847074900424      -0.000009251066      -0.241858132495      -0.000001958808
135 1       0.645406446459       1.461940933417       1.622999827774      -0.000004291274      -0.618923822205       0.000011102299
136 1       0.645362635039       1.461953978150       1.622975434312      -0.000000248108      -0.618926551636      -0.000000319590
137 1       1.463879259781       0.232890074507      -0.146993642046      -0.000044150581       0.449424227205      -0.000011012748
138 1       1.463869280417       0.232902251142      -0.146996612674      -0.000034954059       0.449421867768      -0.000008780252
139 1       1.609643053244       1.252615177005       2.847070614759      -0.000008520916      -0.241849577356      -0.000002699079
140 1       1.609657042641       1.252617874888       2.847067010962      -0.000007590572      -0.241853615363      -0.000002610342
141 1       0.645437255901       1.461953601597       1.623026487975      -0.000002512436      -0.618937006779       0.000011130514
142 1       0.645412186081       1.461915827954       1.623069819964      -0.000002826625      -0.618912163341       0.000013023013
143 1       1.463838189471       0.232887150237      -0.146965685035       0.000034951266       0.449435411895       0.000008778317
144 1       1.463833670449       0.232862552755      -0.146979817095       0.000044147915       0.449415764021       0.000011011825
145 1       1.609630562865       1.252617042079       2.847028105548       0.000007585457      -0.241791563830       0.000002606556
146 1       1.609642028778       1.252585890146       2.847072511053       0.000008515609      -0.241835673378       0.000002691852
147 1       0.645367809924       1.461908229767       1.622989605556       0.000002826028      -0.618921522184      -0.000013024599
148 1       0.645388556565       1.461924835139       1.622984670286       0.000002510526      -0.618947124933      -0.000011129409
149 1       1.463863483139       0.232892141474      -0.146959001491      -0.000044144365       0.449438488995      -0.000011015291
150 1       1.463857235075       0.232899967007      -0.146958979951      -0.000034953993       0.449425820156      -0.000008778709
151 1       1.609607369742       1.252616571707       2.847038818297      -0.000008515742      -0.241799703870      -0.000002698179
152 1       1.609642070490       1.252617433594       2.847063315131      -0.000007589251      -0.241823045500      -0.000002610924
153 1       0.645402148084       1.461930068362       1.622997186646      -0.000002512720      -0.618967643703       0.000011127559
154 1       0.645432158876       1.461935019220       1.623008502016      -0.000002831081      -0.618945273351       0.000013025557
155 1       1.463878345402       0.232904618946      -0.146966860796       0.000034952153       0.449423111934       0.000008778775
156 1       1.463865843019       0.232885087280      -0.146977229471       0.000044148333       0.449421687473       0.000011011850
157 1       1.609675403246       1.252626344508       2.847072389960       0.000007588184      -0.241855203255       0.000002608135
158 1       1.609676651161       1.252626782226       2.847072458956       0.000008517303      -0.241857173227       0.000002696408
159 1       0.645404853058       1.461946661677       1.622998271060       0.000002826969      -0.618924425070      -0.000013027087
160 1       0.645373592122       1.461933698763       1.622999150208       0.000002511600      -0.618928592979      -0.000011126201
