ITEM: TIMESTEP
0
ITEM: NUMBER OF ATOMS
20
ITEM: BOX BOUNDS xy xz yz pp pp pp
-1.3624572147980001e+00 1.2211238170974999e+01 0.0000000000000000e+00
0.0000000000000000e+00 3.0240065150000000e+00 -1.3624572147980001e+00
0.0000000000000000e+00 5.5983939214760001e+00 0.0000000000000000e+00
ITEM: ATOMS id type v_vir_xx v_vir_yy v_vir_zz v_vir_xy v_vir_xz v_vir_yz
1 2      -3.104033079689      -1.862388349429      -5.273405088038      -0.000001023305      -0.118982684206      -0.000006759814
2 2      -3.104046886241      -1.862349174271      -5.273266700804      -0.000001021550      -0.118969913522      -0.000006759516
3 2      -4.691989809889      -4.009000629243      -2.886305439921       0.000024423731       0.094954668879       0.000005512408
4 2      -4.692068513442      -4.009002252644      -2.886274229363       0.000024424651       0.094996595867       0.000005513529
5 2      -3.104062628700      -1.862378859043      -5.273291926234       0.000001021535      -0.118952111802       0.000006759119
6 2      -3.104069888062      -1.862402108973      -5.273400182281       0.000001022380      -0.118950631934       0.000006759189
7 2      -4.692068887643      -4.008925264838      -2.886369617575      -0.000024424282       0.095038033322      -0.000005511953
8 2      -4.692008671486      -4.009015154360      -2.886356842421      -0.000024423265       0.094934775327      -0.000005511970
9 1       1.595653663769      -0.031154841532       0.006222029192       0.000032236704       0.446257563918       0.000011192393
10 1       1.595702530590      -0.031118744248       0.006241911008       0.000032236227       0.446239141715       0.000011193725
11 1       1.958193250581       1.184226255345       2.735802726707       0.000007338079      -0.022145651528       0.000005108350
12 1       1.958186949124       1.184209026406       2.735718203224       0.000007337246      -0.022103006371       0.000005108086
13 1       0.986647366019       1.129904231974       1.825124990229       0.000008691144      -0.362799155473      -0.000009125376
14 1       0.986665494867       1.129892998103       1.825109085344       0.000008691468      -0.362807039335      -0.000009125327
15 1       1.595696311876      -0.031119729594       0.006229757702      -0.000032234601       0.446229119263      -0.000011193591
16 1       1.595667859760      -0.031088164916       0.006222397034      -0.000032235983       0.446265719047      -0.000011191959
17 1       1.958180464380       1.184249480858       2.735738654060      -0.000007337453      -0.022059352558      -0.000005108951
18 1       1.958213286781       1.184230816987       2.735822232270      -0.000007339002      -0.022141851550      -0.000005107328
19 1       0.986675227782       1.129903913257       1.825045298435      -0.000008691433      -0.362838589470       0.000009124249
20 1       0.986699135746       1.129948207773       1.825096155681      -0.000008691723      -0.362845455932       0.000009125734
