ITEM: TIMESTEP
0
ITEM: NUMBER OF ATOMS
20
ITEM: BOX BOUNDS xy xz yz pp pp pp
-1.3624572147980001e+00 1.2211238170974999e+01 0.0000000000000000e+00
0.0000000000000000e+00 3.0240065150000000e+00 -1.3624572147980001e+00
0.0000000000000000e+00 5.5983939214760001e+00 0.0000000000000000e+00
ITEM: ATOMS id type c_pe_atom
1 2      -3.585282687632
2 2      -3.585255654565
3 2      -7.067925780475
4 2      -7.067852895363
5 2      -3.585276134133
6 2      -3.585276998416
7 2      -7.067876662808
8 2      -7.067922389131
9 1      -5.075549552429
10 1      -5.075538077990
11 1      -8.666556645933
12 1      -8.666611917064
13 1      -5.345129308402
14 1      -5.345045788179
15 1      -5.075558222237
16 1      -5.075682466436
17 1      -8.666558276179
18 1      -8.666570296738
19 1      -5.345004306710
20 1      -5.345075499131
