ITEM: TIMESTEP
0
ITEM: NUMBER OF ATOMS
20
ITEM: BOX BOUNDS xy xz yz pp pp pp
-1.3624572147980001e+00 1.2211238170974999e+01 0.0000000000000000e+00
0.0000000000000000e+00 3.0240065150000000e+00 -1.3624572147980001e+00
0.0000000000000000e+00 5.5983939214760001e+00 0.0000000000000000e+00
ITEM: ATOMS id type x y z fx fy fz
1 2       1.518605022658       1.512000000000       1.756344801358       0.023169360626       0.000035065179      -0.006502218106
2 2       3.224553593462       0.000000000000       3.842039883069      -0.023100957575      -0.000035064921       0.006583908001
3 2       0.028138910760       0.000000000000       4.458392672231      -0.054224761867      -0.000050125928      -0.060604781114
4 2       4.715027057123       1.512000000000       1.140004093238       0.054282120271       0.000050125988       0.060509111335
5 2       7.624226560495       0.000000000000       1.756354404082       0.023131263635      -0.000035065321      -0.006574656268
6 2       9.330175131300       1.512000000000       3.842049485792      -0.023133218220       0.000035064717       0.006480251407
7 2       6.133762813237       1.512000000000       4.458392558551      -0.054476249486       0.000050124438      -0.060561212166
8 2      10.820641243197       0.000000000000       1.140001614919       0.054248279825      -0.000050126265       0.060673106095
9 1       5.723017364490       0.000000000000       1.419987714997      -0.018567635159      -0.000064021584      -0.015648316112
10 1      -0.979851396607       1.512000000000       4.178409050472       0.018572434610       0.000064019858       0.015636707152
11 1       1.337114161471       0.000000000000       3.136190824582       0.023420058034      -0.000023027335      -0.026035932550
12 1       3.406054171051       1.512000000000       2.462196224484      -0.023573396368       0.000023030287       0.026155273395
13 1       2.813611310404       1.512000000000       4.990198320304       0.011687517063       0.000032289829       0.010232186175
14 1       1.929554657479       0.000000000000       0.608198445165      -0.011694770670      -0.000032291630      -0.010320275219
15 1      11.828631550565       1.512000000000       1.419985236678      -0.018544988133       0.000064020339      -0.015626054808
16 1       5.125762789467       0.000000000000       4.178406572153       0.018662452460      -0.000064020203       0.015674812013
17 1       7.442725982907       1.512000000000       3.136198062666       0.023616111519       0.000023029638      -0.026174748007
18 1       9.511665992486       0.000000000000       2.462203462568      -0.023427961495      -0.000023026842       0.026031402872
19 1       8.919235212881       0.000000000000       4.990198206625       0.011612551326      -0.000032289151       0.010248790849
20 1       8.035168843553       1.512000000000       0.608195966846      -0.011658210395       0.000032288908      -0.010177354943
