20
Config_type=bulk_beta_phase Weight=1.0 Lattice="11.864930693 0.000000000 -2.887517501 0.000000000 3.024006515 0.000000000 0.000000000 0.000000000 5.761796956" Energy=-170.22074840 Virial="12.74469 -0.00000 0.56480 -0.00000 14.34139 0.00000 0.56480 0.00000 14.49274" pbc="T T T" Properties=species:S:1:pos:R:3:forces:R:3
Ga	      1.89085      1.51200      1.34744         0.013196      0.000043     -0.024048
Ga	      4.04161      0.00000      2.97059        -0.013013     -0.000038      0.024175
Ga	      1.08159      0.00000      4.32530         0.001887     -0.000060     -0.044993
Ga	      4.85088      1.51200     -0.00726        -0.001811      0.000063      0.044860
Ga	      7.82332      0.00000     -0.09631         0.013037     -0.000041     -0.024177
Ga	      9.97408      1.51200      1.52684        -0.013146      0.000044      0.024025
Ga	      7.01406      1.51200      2.88154         0.001524      0.000063     -0.044873
Ga	     10.78334      0.00000     -1.45102        -0.001800     -0.000061      0.045054
O	      5.89649      0.00000      0.02643         0.001178     -0.000071     -0.018623
O	      0.03598      1.51200      4.29161        -0.001152      0.000069      0.018611
O	      2.04079      0.00000      2.73107        -0.001635     -0.000025     -0.000777
O	      3.89168      1.51200      1.58696         0.001462      0.000024      0.000911
O	      3.91382      1.51200      4.18336         0.005984      0.000037     -0.004246
O	      2.01865      0.00000      0.13468        -0.006065     -0.000039      0.004150
O	     11.82895      1.51200     -1.41733         0.001196      0.000067     -0.018609
O	      5.96844      0.00000      2.84785        -0.001094     -0.000071      0.018621
O	      7.97325      1.51200      1.28732        -0.001378      0.000022     -0.001005
O	      9.82414      0.00000      0.14321         0.001592     -0.000024      0.000815
O	      9.84629      0.00000      2.73960         0.005938     -0.000040     -0.004250
O	      7.95111      1.51200     -1.30908        -0.005900      0.000039      0.004377
