ITEM: TIMESTEP
0
ITEM: NUMBER OF ATOMS
80
ITEM: BOX BOUNDS pp pp pp
0.0000000000000000e+00 9.2791913309999998e+00
0.0000000000000000e+00 9.2791913309999998e+00
0.0000000000000000e+00 9.2791913309999998e+00
ITEM: ATOMS id type c_pe_atom
1 2      -5.136664115318
2 2      -4.860389846702
3 2      -4.860306456924
4 2      -4.860375793237
5 2      -4.860306456924
6 2      -4.860337694139
7 2      -4.860375793237
8 2      -5.136664115318
9 2      -5.136671205771
10 2      -5.136664115318
11 2      -4.860337694139
12 2      -4.860375793237
13 2      -4.860389846702
14 2      -4.860337694139
15 2      -4.860389846702
16 2      -4.860306456924
17 2      -5.136657023611
18 2      -4.860315047496
19 2      -4.860398450964
20 2      -4.860329101214
21 2      -4.860398450964
22 2      -4.860367213096
23 2      -4.860329101214
24 2      -5.136657023611
25 2      -5.136649931051
26 2      -5.136657023611
27 2      -4.860367213096
28 2      -4.860329101214
29 2      -4.860315047496
30 2      -4.860367213096
31 2      -4.860315047496
32 2      -4.860398450964
33 1      -6.593873529562
34 1      -6.593854893387
35 1      -6.593973631393
36 1      -6.593823465243
37 1      -6.593923873667
38 1      -6.593878703576
39 1      -6.593973631393
40 1      -6.593923873667
41 1      -6.593878703576
42 1      -6.593820836929
43 1      -6.593973631393
44 1      -6.593873529562
45 1      -6.593734475591
46 1      -6.593923873667
47 1      -6.593854893387
48 1      -6.593823465243
49 1      -6.593820836929
50 1      -6.593734475591
51 1      -6.593820836929
52 1      -6.593854893387
53 1      -6.593873529562
54 1      -6.593734475591
55 1      -6.593823465243
56 1      -6.593878703576
57 1      -6.593812703144
58 1      -6.593895453830
59 1      -6.593729059086
60 1      -6.593912218288
61 1      -6.593780686268
62 1      -6.593792866619
63 1      -6.593729059086
64 1      -6.593780686268
65 1      -6.593792866619
66 1      -6.593896518884
67 1      -6.593729059086
68 1      -6.593812703144
69 1      -6.593984749527
70 1      -6.593780686268
71 1      -6.593895453830
72 1      -6.593912218288
73 1      -6.593896518884
74 1      -6.593984749527
75 1      -6.593896518884
76 1      -6.593895453830
77 1      -6.593812703144
78 1      -6.593984749527
79 1      -6.593912218288
80 1      -6.593792866619
