ITEM: TIMESTEP
0
ITEM: NUMBER OF ATOMS
80
ITEM: BOX BOUNDS pp pp pp
0.0000000000000000e+00 9.2791913309999998e+00
0.0000000000000000e+00 9.2791913309999998e+00
0.0000000000000000e+00 9.2791913309999998e+00
ITEM: ATOMS id type x y z fx fy fz
1 2       6.959390000000       2.319800000000       2.319800000000       0.000102949144      -0.000062138148      -0.000026341249
2 2       6.959390000000       4.311140000000       4.639600000000       0.000078697556       0.009500656015      -0.000073136481
3 2       0.000000000000       6.959390000000       0.328460000000      -0.000007547482       0.000094451490      -0.009578546715
4 2       0.000000000000       2.319800000000       4.311140000000      -0.000008856704      -0.000062958864       0.009478872030
5 2       0.328460000000       0.000000000000       6.959390000000      -0.009578546715      -0.000007547482       0.000094451490
6 2       0.328460000000       4.639600000000       2.319800000000      -0.009594867553      -0.000074438892      -0.000047203112
7 2       2.319800000000       4.311140000000       0.000000000000      -0.000062958864       0.009478872030      -0.000008856704
8 2       2.319800000000       6.959390000000       2.319800000000      -0.000026341249       0.000102949144      -0.000062138148
9 2       2.319800000000       2.319800000000       2.319800000000      -0.000060990399      -0.000060990399      -0.000060990399
10 2       2.319800000000       2.319800000000       6.959390000000      -0.000062138148      -0.000026341249       0.000102949144
11 2       2.319800000000       0.328460000000       4.639600000000      -0.000047203112      -0.009594867553      -0.000074438892
12 2       4.311140000000       0.000000000000       2.319800000000       0.009478872030      -0.000008856704      -0.000062958864
13 2       4.311140000000       4.639600000000       6.959390000000       0.009500656015      -0.000073136481       0.000078697556
14 2       4.639600000000       2.319800000000       0.328460000000      -0.000074438892      -0.000047203112      -0.009594867553
15 2       4.639600000000       6.959390000000       4.311140000000      -0.000073136481       0.000078697556       0.009500656015
16 2       6.959390000000       0.328460000000       0.000000000000       0.000094451490      -0.009578546715      -0.000007547482
17 2       2.319800000000       6.959390000000       6.959390000000      -0.000086355234       0.000105222977       0.000079858476
18 2       2.319800000000       8.950730000000       0.000000000000      -0.000068806867       0.009565988427      -0.000005305698
19 2       4.639600000000       2.319800000000       4.968050000000      -0.000070900745      -0.000084566414      -0.009539032982
20 2       4.639600000000       6.959390000000       8.950730000000      -0.000072201855       0.000116058826       0.009587778903
21 2       4.968050000000       4.639600000000       2.319800000000      -0.009539032982      -0.000070900745      -0.000084566414
22 2       4.968050000000       0.000000000000       6.959390000000      -0.009522720892      -0.000006616381       0.000100301415
23 2       6.959390000000       8.950730000000       4.639600000000       0.000116058826       0.009587778903      -0.000072201855
24 2       6.959390000000       2.319800000000       6.959390000000       0.000079858476      -0.000086355234       0.000105222977
25 2       6.959390000000       6.959390000000       6.959390000000       0.000067152484       0.000067152485       0.000067152485
26 2       6.959390000000       6.959390000000       2.319800000000       0.000105222977       0.000079858476      -0.000086355234
27 2       6.959390000000       4.968050000000       0.000000000000       0.000100301415      -0.009522720892      -0.000006616381
28 2       8.950730000000       4.639600000000       6.959390000000       0.009587778903      -0.000072201855       0.000116058826
29 2       8.950730000000       0.000000000000       2.319800000000       0.009565988427      -0.000005305698      -0.000068806867
30 2       0.000000000000       6.959390000000       4.968050000000      -0.000006616381       0.000100301415      -0.009522720892
31 2       0.000000000000       2.319800000000       8.950730000000      -0.000005305698      -0.000068806867       0.009565988427
32 2       2.319800000000       4.968050000000       4.639600000000      -0.000084566414      -0.009539032982      -0.000070900745
33 1       8.200100000000       5.655460000000       1.462250000000       0.017802188727      -0.015236473001      -0.029752304221
34 1       8.200100000000       3.623730000000       3.177340000000       0.017800480176       0.015274916335       0.029839546368
35 1       8.263330000000       1.462250000000       1.079090000000       0.015144594997      -0.029786788360      -0.017814699997
36 1       8.263330000000       3.177340000000       5.718690000000       0.015173630772       0.029862146257      -0.017863842740
37 1       1.015860000000       3.177340000000       1.079090000000      -0.015157743255       0.029888571346      -0.017782382929
38 1       1.015860000000       1.462250000000       5.718690000000      -0.015164163344      -0.029774684183      -0.017885468190
39 1       1.079090000000       8.263330000000       1.462250000000      -0.017814699997       0.015144594997      -0.029786788360
40 1       1.079090000000       1.015860000000       3.177340000000      -0.017782382929      -0.015157743255       0.029888571346
41 1       1.462250000000       5.718690000000       1.015860000000      -0.029774684183      -0.017885468190      -0.015164163344
42 1       1.462250000000       3.560500000000       3.623730000000      -0.029735834510       0.017918911444       0.015268743712
43 1       1.462250000000       1.079090000000       8.263330000000      -0.029786788360      -0.017814699997       0.015144594997
44 1       1.462250000000       8.200100000000       5.655460000000      -0.029752304221       0.017802188727      -0.015236473001
45 1       3.177340000000       3.560500000000       5.655460000000       0.029837844496       0.017866667842      -0.015252919485
46 1       3.177340000000       1.079090000000       1.015860000000       0.029888571346      -0.017782382929      -0.015157743255
47 1       3.177340000000       8.200100000000       3.623730000000       0.029839546368       0.017800480176       0.015274916335
48 1       3.177340000000       5.718690000000       8.263330000000       0.029862146257      -0.017863842740       0.015173630772
49 1       3.560500000000       3.623730000000       1.462250000000       0.017918911444       0.015268743712      -0.029735834510
50 1       3.560500000000       5.655460000000       3.177340000000       0.017866667842      -0.015252919485       0.029837844496
51 1       3.623730000000       1.462250000000       3.560500000000       0.015268743712      -0.029735834510       0.017918911445
52 1       3.623730000000       3.177340000000       8.200100000000       0.015274916335       0.029839546368       0.017800480176
53 1       5.655460000000       1.462250000000       8.200100000000      -0.015236473001      -0.029752304221       0.017802188727
54 1       5.655460000000       3.177340000000       3.560500000000      -0.015252919485       0.029837844496       0.017866667842
55 1       5.718690000000       8.263330000000       3.177340000000      -0.017863842740       0.015173630772       0.029862146257
56 1       5.718690000000       1.015860000000       1.462250000000      -0.017885468190      -0.015164163344      -0.029774684183
57 1       3.560500000000       1.015860000000       6.101850000000       0.017878543742      -0.015162647663      -0.029870178424
58 1       3.560500000000       8.263330000000       7.816940000000       0.017902553439       0.015151071324       0.029773907471
59 1       3.623730000000       6.101850000000       5.718690000000       0.015292623565      -0.029811859860      -0.017883560047
60 1       3.623730000000       7.816940000000       1.079090000000       0.015265156077       0.029742015178      -0.017826125746
61 1       5.655460000000       7.816940000000       5.718690000000      -0.015255751410       0.029730134146      -0.017876963108
62 1       5.655460000000       6.101850000000       1.079090000000      -0.015247765375      -0.029838507548      -0.017782176007
63 1       5.718690000000       3.623730000000       6.101850000000      -0.017883560047       0.015292623565      -0.029811859860
64 1       5.718690000000       5.655460000000       7.816940000000      -0.017876963108      -0.015255751410       0.029730134146
65 1       6.101850000000       1.079090000000       5.655460000000      -0.029838507548      -0.017782176007      -0.015247765375
66 1       6.101850000000       8.200100000000       8.263330000000      -0.029872096899       0.017792427967       0.015155673475
67 1       6.101850000000       5.718690000000       3.623730000000      -0.029811859860      -0.017883560047       0.015292623565
68 1       6.101850000000       3.560500000000       1.015860000000      -0.029870178424       0.017878543742      -0.015162647663
69 1       7.816940000000       8.200100000000       1.015860000000       0.029790148292       0.017805757659      -0.015147773577
70 1       7.816940000000       5.718690000000       5.655460000000       0.029730134146      -0.017876963108      -0.015255751410
71 1       7.816940000000       3.560500000000       8.263330000000       0.029773907471       0.017902553439       0.015151071324
72 1       7.816940000000       1.079090000000       3.623730000000       0.029742015178      -0.017826125746       0.015265156077
73 1       8.200100000000       8.263330000000       6.101850000000       0.017792427967       0.015155673475      -0.029872096900
74 1       8.200100000000       1.015860000000       7.816940000000       0.017805757659      -0.015147773577       0.029790148292
75 1       8.263330000000       6.101850000000       8.200100000000       0.015155673475      -0.029872096900       0.017792427967
76 1       8.263330000000       7.816940000000       3.560500000000       0.015151071324       0.029773907471       0.017902553439
77 1       1.015860000000       6.101850000000       3.560500000000      -0.015162647663      -0.029870178424       0.017878543742
78 1       1.015860000000       7.816940000000       8.200100000000      -0.015147773577       0.029790148292       0.017805757659
79 1       1.079090000000       3.623730000000       7.816940000000      -0.017826125746       0.015265156077       0.029742015178
80 1       1.079090000000       5.655460000000       6.101850000000      -0.017782176007      -0.015247765375      -0.029838507548
