ITEM: TIMESTEP
0
ITEM: NUMBER OF ATOMS
40
ITEM: BOX BOUNDS pp pp pp
0.0000000000000000e+00 8.9605695559999994e+00
0.0000000000000000e+00 5.2180209399999997e+00
0.0000000000000000e+00 9.5880727189999995e+00
ITEM: ATOMS id type c_pe_atom
1 2      -8.520958722769
2 2      -8.521005125187
3 2      -9.691724032537
4 2      -9.691765573870
5 2      -7.391011932472
6 2      -6.049514707764
7 2      -6.049524989558
8 2      -7.391057423600
9 2      -9.692681000477
10 2      -9.692659191256
11 2      -8.525033297586
12 2      -8.525016463511
13 2      -7.386026580797
14 2      -6.052212630892
15 2      -6.052242813532
16 2      -7.386053212733
17 1      -2.445734219148
18 1      -1.709234377936
19 1      -3.016456741422
20 1      -8.346647397656
21 1      -2.445753870628
22 1      -6.265190686507
23 1      -3.016495739210
24 1      -8.346719439172
25 1      -6.269178273418
26 1      -2.441668249349
27 1      -8.347817854671
28 1      -3.014922351252
29 1      -1.708528968419
30 1      -2.441677630119
31 1      -5.844334903750
32 1      -5.844665440395
33 1      -1.708551239284
34 1      -6.265300515592
35 1      -5.844354181176
36 1      -5.844677246234
37 1      -6.269214404611
38 1      -1.709245214858
39 1      -8.347827312899
40 1      -3.014783433925
