80
Config_type=bulk_delta_phase Weight=1.0 Lattice="9.354478888 0.000000000 0.000000000 0.000000000 9.354478888 0.000000000 0.000000000 0.000000000 9.354478888" Energy=-680.01522560 Virial="17.22629 -0.00008 -0.00004 -0.00008 17.22625 -0.00001 -0.00004 -0.00001 17.22633" pbc="T T T" Properties=species:S:1:pos:R:3:forces:R:3
Ga	      7.01586      2.33862      2.33862        -0.000024     -0.000026     -0.000031
Ga	      7.01586      4.34389      4.67724        -0.000044      0.008354     -0.000053
Ga	      0.00000      7.01586      0.33335         0.000003     -0.000029     -0.008385
Ga	      0.00000      2.33862      4.34389         0.000009     -0.000057      0.008352
Ga	      0.33335      0.00000      7.01586        -0.008384      0.000002     -0.000035
Ga	      0.33335      4.67724      2.33862        -0.008404     -0.000052     -0.000040
Ga	      2.33862      4.34389      0.00000        -0.000048      0.008352      0.000006
Ga	      2.33862      7.01586      2.33862        -0.000033     -0.000029     -0.000024
Ga	      2.33862      2.33862      2.33862        -0.000043     -0.000045     -0.000049
Ga	      2.33862      2.33862      7.01586        -0.000029     -0.000031     -0.000025
Ga	      2.33862      0.33335      4.67724        -0.000038     -0.008406     -0.000047
Ga	      4.34389      0.00000      2.33862         0.008352      0.000005     -0.000046
Ga	      4.34389      4.67724      7.01586         0.008353     -0.000054     -0.000045
Ga	      4.67724      2.33862      0.33335        -0.000051     -0.000031     -0.008407
Ga	      4.67724      7.01586      4.34389        -0.000049     -0.000047      0.008353
Ga	      7.01586      0.33335      0.00000        -0.000035     -0.008381     -0.000001
Ga	      2.33862      7.01586      7.01586        -0.000051     -0.000054     -0.000061
Ga	      2.33862      9.02112      0.00000        -0.000035      0.008564      0.000025
Ga	      4.67724      2.33862      5.01059        -0.000025     -0.000042     -0.008425
Ga	      4.67724      7.01586      9.02112        -0.000029     -0.000038      0.008556
Ga	      5.01059      4.67724      2.33862        -0.008439     -0.000026     -0.000035
Ga	      5.01059      0.00000      7.01586        -0.008419      0.000032     -0.000053
Ga	      7.01586      9.02112      4.67724        -0.000044      0.008560     -0.000028
Ga	      7.01586      2.33862      7.01586        -0.000062     -0.000055     -0.000065
Ga	      7.01586      7.01586      7.01586        -0.000029     -0.000022     -0.000027
Ga	      7.01586      7.01586      2.33862        -0.000056     -0.000063     -0.000048
Ga	      7.01586      5.01059      0.00000        -0.000051     -0.008423      0.000028
Ga	      9.02112      4.67724      7.01586         0.008559     -0.000029     -0.000044
Ga	      9.02112      0.00000      2.33862         0.008560      0.000022     -0.000032
Ga	      0.00000      7.01586      5.01059         0.000025     -0.000058     -0.008426
Ga	      0.00000      2.33862      9.02112         0.000028     -0.000026      0.008557
Ga	      2.33862      5.01059      4.67724        -0.000036     -0.008441     -0.000027
O	      8.27441      5.70967      1.47616         0.000915      0.001621      0.004365
O	      8.27441      3.64481      3.20108         0.000899     -0.001639     -0.004429
O	      8.32205      1.47616      1.08007        -0.001389      0.004378     -0.000947
O	      8.32205      3.20108      5.75731        -0.001400     -0.004406     -0.000868
O	      1.03243      3.20108      1.08007         0.001585     -0.004415     -0.000996
O	      1.03243      1.47616      5.75731         0.001609      0.004346     -0.000946
O	      1.08007      8.32205      1.47616        -0.000945     -0.001389      0.004366
O	      1.08007      1.03243      3.20108        -0.000990      0.001577     -0.004427
O	      1.47616      5.75731      1.03243         0.004363     -0.000967      0.001606
O	      1.47616      3.59717      3.64481         0.004377      0.000881     -0.001364
O	      1.47616      1.08007      8.32205         0.004369     -0.000961     -0.001393
O	      1.47616      8.27441      5.70967         0.004358      0.000923      0.001631
O	      3.20108      3.59717      5.70967        -0.004418      0.000922      0.001596
O	      3.20108      1.08007      1.03243        -0.004422     -0.000997      0.001576
O	      3.20108      8.27441      3.64481        -0.004412      0.000904     -0.001646
O	      3.20108      5.75731      8.32205        -0.004409     -0.000881     -0.001384
O	      3.59717      3.64481      1.47616         0.000872     -0.001366      0.004360
O	      3.59717      5.70967      3.20108         0.000924      0.001603     -0.004407
O	      3.64481      1.47616      3.59717        -0.001359      0.004373      0.000878
O	      3.64481      3.20108      8.27441        -0.001650     -0.004419      0.000916
O	      5.70967      1.47616      8.27441         0.001623      0.004378      0.000922
O	      5.70967      3.20108      3.59717         0.001595     -0.004421      0.000926
O	      5.75731      8.32205      3.20108        -0.000897     -0.001396     -0.004419
O	      5.75731      1.03243      1.47616        -0.000962      0.001608      0.004359
O	      3.59717      1.03243      6.15340         0.000921      0.001605      0.004367
O	      3.59717      8.32205      7.87832         0.000852     -0.001397     -0.004435
O	      3.64481      6.15340      5.75731        -0.001368      0.004373     -0.000910
O	      3.64481      7.87832      1.08007        -0.001344     -0.004461     -0.000948
O	      5.70967      7.87832      5.75731         0.001602     -0.004471     -0.000959
O	      5.70967      6.15340      1.08007         0.001590      0.004394     -0.001006
O	      5.75731      3.64481      6.15340        -0.000893     -0.001371      0.004372
O	      5.75731      5.70967      7.87832        -0.000953      0.001615     -0.004447
O	      6.15340      1.08007      5.70967         0.004385     -0.000984      0.001595
O	      6.15340      8.27441      8.32205         0.004373      0.000825     -0.001387
O	      6.15340      5.75731      3.64481         0.004364     -0.000893     -0.001363
O	      6.15340      3.59717      1.03243         0.004366      0.000918      0.001598
O	      7.87832      8.27441      1.03243        -0.004443      0.000895      0.001590
O	      7.87832      5.75731      5.70967        -0.004449     -0.000959      0.001615
O	      7.87832      3.59717      8.32205        -0.004445      0.000855     -0.001399
O	      7.87832      1.08007      3.64481        -0.004463     -0.000933     -0.001351
O	      8.27441      8.32205      6.15340         0.000856     -0.001392      0.004394
O	      8.27441      1.03243      7.87832         0.000907      0.001589     -0.004448
O	      8.32205      6.15340      8.27441        -0.001394      0.004376      0.000830
O	      8.32205      7.87832      3.59717        -0.001383     -0.004454      0.000850
O	      1.03243      6.15340      3.59717         0.001604      0.004365      0.000925
O	      1.03243      7.87832      8.27441         0.001595     -0.004429      0.000895
O	      1.08007      3.64481      7.87832        -0.000942     -0.001340     -0.004457
O	      1.08007      5.70967      6.15340        -0.001010      0.001590      0.004387
