ITEM: TIMESTEP
0
ITEM: NUMBER OF ATOMS
160
ITEM: BOX BOUNDS pp pp pp
0.0000000000000000e+00 8.3154572540000000e+00
0.0000000000000000e+00 8.3154572540000000e+00
0.0000000000000000e+00 2.4946371761999998e+01
ITEM: ATOMS id type c_pe_atom
1 2      -4.456536145780
2 2      -4.275073679556
3 2      -4.271038937374
4 2      -4.413446515530
5 2      -4.399614061523
6 2      -4.470171837893
7 2      -4.323801426259
8 2      -4.291822503209
9 2      -4.307871220581
10 2      -4.267767948898
11 2      -4.272278948690
12 2      -4.403002220556
13 2      -4.453903136086
14 2      -4.392391629885
15 2      -4.271238865330
16 2      -4.297284012074
17 2      -4.341143263388
18 2      -4.461266750801
19 2      -4.326371932301
20 2      -4.297812350895
21 2      -4.864329378356
22 2      -4.766608586698
23 2      -4.957448430340
24 2      -4.627262707307
25 2      -4.772500689553
26 2      -5.075700815142
27 2      -5.049576710187
28 2      -4.597871708697
29 2      -5.038057676564
30 2      -4.890699320693
31 2      -4.771634730596
32 2      -4.758558985190
33 2      -4.714885650926
34 2      -4.669162519864
35 2      -4.727093876150
36 2      -4.679074678820
37 2      -4.922241170330
38 2      -4.686477041200
39 2      -5.034737026928
40 2      -5.053538566475
41 2      -4.757143665755
42 2      -4.866300591945
43 2      -4.786956605515
44 2      -4.711434173058
45 2      -4.677345438206
46 2      -4.661419391154
47 2      -4.729244999378
48 2      -4.892345167798
49 2      -4.727808785568
50 2      -5.057256568524
51 2      -5.074483723073
52 2      -4.727701674837
53 2      -4.663474119579
54 2      -4.730447562234
55 2      -4.719334990235
56 2      -4.727783503424
57 2      -4.775925448648
58 2      -4.764819098875
59 2      -4.716230225244
60 2      -5.044967965589
61 2      -4.638550091294
62 2      -4.594758908235
63 2      -4.611830390621
64 2      -4.615600427849
65 1     -11.122566147968
66 1     -11.169611148094
67 1     -11.063846060525
68 1     -11.100291031765
69 1     -11.088201255417
70 1     -10.969476584793
71 1     -11.100344126615
72 1     -10.706416866441
73 1     -11.053222576187
74 1     -10.692841435359
75 1     -11.056480321909
76 1     -11.028300829121
77 1     -11.266181934591
78 1     -11.057480199497
79 1     -11.060582483149
80 1     -11.018631537005
81 1     -11.048979888570
82 1     -11.128183190939
83 1     -11.040563470853
84 1     -11.080121379866
85 1     -11.286156927349
86 1     -11.111285145458
87 1     -11.142714920802
88 1     -11.073564969401
89 1     -11.064305901784
90 1     -11.120195943384
91 1     -10.700187706895
92 1     -11.141235730662
93 1     -11.055070167832
94 1     -11.107756137020
95 1     -11.015247325704
96 1     -10.968941950797
97 1     -10.967955085650
98 1     -10.960101712765
99 1     -11.038731752049
100 1     -11.045208148957
101 1     -11.127454232895
102 1     -10.690348733543
103 1     -10.654126472153
104 1     -11.062638413754
105 1     -10.699491463917
106 1     -11.073843203219
107 1     -11.097728596168
108 1     -11.014706062099
109 1     -11.086323703932
110 1     -11.176964060055
111 1     -11.117871277678
112 1     -11.055384373177
113 1     -11.273140709450
114 1     -11.119419764569
115 1     -11.098177174603
116 1     -11.087325534704
117 1     -11.104353565060
118 1     -11.121152577411
119 1     -11.074642692330
120 1     -11.279186910152
121 1     -11.082613611052
122 1     -11.075566634419
123 1     -10.970258429835
124 1     -11.064062321405
125 1     -11.030554970408
126 1     -11.131263580352
127 1     -11.161096341406
128 1     -11.121771071205
129 1     -11.064279520924
130 1     -11.091749552671
131 1     -11.264089648969
132 1     -11.152431356480
133 1     -11.110464904937
134 1     -11.015060831183
135 1     -11.133803608999
136 1     -11.238732287026
137 1     -10.972709082990
138 1     -11.113413120141
139 1     -11.162470682997
140 1     -10.984544431358
141 1     -11.096018549220
142 1     -11.108650709873
143 1     -11.001928722439
144 1     -11.126471415362
145 1     -11.069041609384
146 1     -10.653818320076
147 1     -11.138162123040
148 1     -10.990562460765
149 1     -11.156532288533
150 1     -11.075861308400
151 1     -11.105718719723
152 1     -11.028247293772
153 1     -11.171049331011
154 1     -11.268438870071
155 1     -11.008936394720
156 1     -11.041217142483
157 1     -11.129370656367
158 1     -11.266193457973
159 1     -10.697612667702
160 1     -10.995440635001
