ITEM: TIMESTEP
0
ITEM: NUMBER OF ATOMS
30
ITEM: BOX BOUNDS xy xz yz pp pp pp
-2.5217303599999998e+00 5.0434607400000004e+00 -2.5217303599999998e+00
0.0000000000000000e+00 4.3677655399999997e+00 0.0000000000000000e+00
0.0000000000000000e+00 1.3577357367999999e+01 0.0000000000000000e+00
ITEM: ATOMS id type x y z fx fy fz
1 2       0.000000000000       0.000000000000       1.957030000000      -0.000005358682      -0.000029679994      -0.091143839774
2 2       0.000000006667       2.911840000000       0.305870000000      -0.000005813681       0.000057124801       0.091070096630
3 2       2.521730003333       1.455920000000       2.568750000000      -0.000006829548       0.000051661359       0.091137239770
4 2       0.000000006667       2.911840000000       4.219930000000      -0.000005533239       0.000077208493      -0.091123015923
5 2       2.521730003333       1.455920000000       6.482810000000      -0.000008060753       0.000030565835      -0.091036500548
6 2       0.000000000000       0.000000000000       4.831650000000       0.000014700283       0.000002870388       0.091167503173
7 2       0.000000006667       2.911840000000       7.094550000000      -0.000005963227       0.000057007923       0.091057516559
8 2       0.000000000000       0.000000000000       8.745710000000      -0.000007145026      -0.000029627357      -0.091146842228
9 2       0.000000006667       2.911840000000      11.008610000000       0.000000781099       0.000077618431      -0.091128982751
10 2       2.521730003333       1.455920000000       9.357430000000       0.000013431166       0.000052687033       0.091130220144
11 2       0.000000000000       0.000000000000      11.620330000000      -0.000017428641       0.000003052793       0.091163877901
12 2       2.521730003333       1.455920000000      13.271490000000       0.000021161587       0.000030490053      -0.091048903043
13 1       4.279360003030       1.323460000000       3.394340000000      -0.055433588560       0.096029748798      -0.000010565280
14 1       1.528200000000       0.000000000000       3.394340000000       0.110883613171      -0.000015931378       0.000026463587
15 1       1.757630006970       3.044310000000       3.394340000000      -0.055432308970      -0.096110374233      -0.000016426590
16 1       3.285830000303       0.132460000000       1.131440000000       0.055487378633      -0.095975627287       0.000105312189
17 1       3.285830006363       2.779380000000       1.131440000000       0.055363613026       0.096047111168       0.000129134568
18 1       0.993530003333       1.455920000000       1.131440000000      -0.110848317775      -0.000063017294       0.000138588361
19 1       1.757630006363       2.779380000000       7.920120000000      -0.055358056100       0.096045561700       0.000121208698
20 1       4.049930003333       1.455920000000       7.920120000000       0.110850448815      -0.000060705592       0.000126120477
21 1       1.757630000303       0.132460000000       7.920120000000      -0.055478172363      -0.095976051991       0.000089631237
22 1       0.764100003637       1.588390000000       5.657240000000       0.055365098342      -0.096122237265      -0.000133350652
23 1       0.764100009697       4.235310000000       5.657240000000       0.055483724914       0.095879179287      -0.000122366212
24 1      -1.528199993333       2.911840000000       5.657240000000      -0.110855804800       0.000140624689      -0.000127828327
25 1      -0.764099990303       4.235310000000      12.445920000000      -0.055489513655       0.095878707089      -0.000135224516
26 1       1.528200006667       2.911840000000      12.445920000000       0.110855912430       0.000144588710      -0.000141767342
27 1      -0.764099996363       1.588390000000      12.445920000000      -0.055368830322      -0.096124938556      -0.000142722204
28 1      -1.757629993030       3.044310000000      10.183020000000       0.055425559914      -0.096111034927      -0.000018078647
29 1       0.764100003030       1.323460000000      10.183020000000       0.055438959669       0.096028329080      -0.000012054623
30 1       3.515260000000       0.000000000000      10.183020000000      -0.110877657707      -0.000014911754       0.000025555368
