ITEM: TIMESTEP
0
ITEM: NUMBER OF ATOMS
20
ITEM: BOX BOUNDS xy xz yz pp pp pp
-1.3791403644160001e+00 1.2360763535686001e+01 0.0000000000000000e+00
0.0000000000000000e+00 3.0610351659999999e+00 -1.3791403644160001e+00
0.0000000000000000e+00 5.6669456839860004e+00 0.0000000000000000e+00
ITEM: ATOMS id type c_pe_atom
1 2      -4.917280125964
2 2      -4.917264889264
3 2      -8.282724707054
4 2      -8.282719602454
5 2      -4.917337255818
6 2      -4.917299043518
7 2      -8.282766321771
8 2      -8.282735232504
9 1      -4.358882463956
10 1      -4.358926685499
11 1      -7.862726023592
12 1      -7.862803330623
13 1      -4.407662929492
14 1      -4.407710071604
15 1      -4.358918206223
16 1      -4.358853771672
17 1      -7.862747972957
18 1      -7.862811740753
19 1      -4.407612731879
20 1      -4.407642644906
