ITEM: TIMESTEP
0
ITEM: NUMBER OF ATOMS
20
ITEM: BOX BOUNDS xy xz yz pp pp pp
-1.3791403644160001e+00 1.2360763535686001e+01 0.0000000000000000e+00
0.0000000000000000e+00 3.0610351659999999e+00 -1.3791403644160001e+00
0.0000000000000000e+00 5.6669456839860004e+00 0.0000000000000000e+00
ITEM: ATOMS id type v_vir_xx v_vir_yy v_vir_zz v_vir_xy v_vir_xz v_vir_yz
1 2      -1.788444221600      -0.856654151787      -4.067794476381       0.000001694117       0.213933101796       0.000004977821
2 2      -1.788493933871      -0.856700015824      -4.067821416469       0.000001695018       0.213916431241       0.000004980535
3 2      -3.455132772721      -3.077624930647      -1.666535147684      -0.000016512948       0.053954531351      -0.000004010925
4 2      -3.455124005968      -3.077634147683      -1.666564484958      -0.000016514192       0.053954838928      -0.000004010434
5 2      -1.788405023684      -0.856661301724      -4.067793273313      -0.000001692853       0.213911790696      -0.000004980739
6 2      -1.788328956624      -0.856664212606      -4.067788268400      -0.000001692993       0.213941997432      -0.000004980151
7 2      -3.455055992158      -3.077599190203      -1.666499405370       0.000016513948       0.053945539225       0.000004009918
8 2      -3.455042829390      -3.077622353802      -1.666547799725       0.000016513141       0.053919642522       0.000004009325
9 1       1.406260193254       0.070894742962      -0.083321933730      -0.000022355509       0.457044977834      -0.000007086136
10 1       1.406262152770       0.070857817265      -0.083357882146      -0.000022355688       0.457039004629      -0.000007086904
11 1       1.706362362533       1.189554793083       2.800689084873      -0.000006486956      -0.146411185754      -0.000001910011
12 1       1.706332105070       1.189522183220       2.800697132759      -0.000006485683      -0.146441041760      -0.000001908759
13 1       0.610143978676       1.280025785498       1.647106871280      -0.000004407595      -0.531738389925       0.000004817526
14 1       0.610129450651       1.280021474797       1.647121839737      -0.000004407231      -0.531772054038       0.000004816831
15 1       1.406244276706       0.070864008043      -0.083353043126       0.000022357080       0.457067305599       0.000007086634
16 1       1.406292894471       0.070904247730      -0.083314798241       0.000022357249       0.457062511295       0.000007087765
17 1       1.706324921778       1.189513311645       2.800702630445       0.000006488055      -0.146439803557       0.000001908898
18 1       1.706334906320       1.189505718360       2.800686082795       0.000006487318      -0.146420549700       0.000001909026
19 1       0.610141497437       1.280006958371       1.647089915721       0.000004407512      -0.531762879018      -0.000004817277
20 1       0.610172878707       1.280045894377       1.647180267902       0.000004407776      -0.531735087778      -0.000004816446
