ITEM: TIMESTEP
0
ITEM: NUMBER OF ATOMS
80
ITEM: BOX BOUNDS pp pp pp
0.0000000000000000e+00 9.2415475530000002e+00
0.0000000000000000e+00 9.2415475530000002e+00
0.0000000000000000e+00 9.2415475530000002e+00
ITEM: ATOMS id type x y z fx fy fz
1 2       6.931160000000       2.310390000000       2.310390000000       0.000123726371      -0.000278110788      -0.000240496146
2 2       6.931160000000       4.294280000000       4.620770000000       0.000104056830      -0.139222280389       0.000044130403
3 2       0.000000000000       6.931160000000       0.326490000000       0.000062697340       0.000079107135       0.139330507459
4 2       0.000000000000       2.310390000000       4.294280000000       0.000078620872      -0.000132279818      -0.139267440255
5 2       0.326490000000       0.000000000000       6.931160000000       0.139330507459       0.000062697340       0.000079107135
6 2       0.326490000000       4.620770000000       2.310390000000       0.139268444857       0.000060050988      -0.000157231535
7 2       2.310390000000       4.294280000000       0.000000000000      -0.000132279818      -0.139267440255       0.000078620872
8 2       2.310390000000       6.931160000000       2.310390000000      -0.000240496146       0.000123726371      -0.000278110788
9 2       2.310390000000       2.310390000000       2.310390000000      -0.000156273264      -0.000156273264      -0.000156273264
10 2       2.310390000000       2.310390000000       6.931160000000      -0.000278110788      -0.000240496146       0.000123726371
11 2       2.310390000000       0.326490000000       4.620770000000      -0.000157231535       0.139268444857       0.000060050988
12 2       4.294280000000       0.000000000000       2.310390000000      -0.139267440255       0.000078620872      -0.000132279818
13 2       4.294280000000       4.620770000000       6.931160000000      -0.139222280389       0.000044130403       0.000104056830
14 2       4.620770000000       2.310390000000       0.326490000000       0.000060050988      -0.000157231535       0.139268444857
15 2       4.620770000000       6.931160000000       4.294280000000       0.000044130403       0.000104056830      -0.139222280389
16 2       6.931160000000       0.326490000000       0.000000000000       0.000079107135       0.139330507459       0.000062697340
17 2       2.310390000000       6.931160000000       6.931160000000      -0.000142810748       0.000112446057       0.000125909493
18 2       2.310390000000       8.915050000000       0.000000000000      -0.000106792265      -0.139124637051       0.000021725611
19 2       4.620770000000       2.310390000000       4.947270000000       0.000003159248      -0.000081847258       0.139132400209
20 2       4.620770000000       6.931160000000       8.915050000000       0.000019082354       0.000028671291      -0.139079475304
21 2       4.947270000000       4.620770000000       2.310390000000       0.139132400209       0.000003159248      -0.000081847258
22 2       4.947270000000       0.000000000000       6.931160000000       0.139194461648       0.000037650538       0.000053622883
23 2       6.931160000000       8.915050000000       4.620770000000       0.000028671291      -0.139079475304       0.000019082354
24 2       6.931160000000       2.310390000000       6.931160000000       0.000125909493      -0.000142810748       0.000112446057
25 2       6.931160000000       6.931160000000       6.931160000000       0.000086112535       0.000086112535       0.000086112535
26 2       6.931160000000       6.931160000000       2.310390000000       0.000112446057       0.000125909493      -0.000142810748
27 2       6.931160000000       4.947270000000       0.000000000000       0.000053622883       0.139194461648       0.000037650538
28 2       8.915050000000       4.620770000000       6.931160000000      -0.139079475304       0.000019082354       0.000028671291
29 2       8.915050000000       0.000000000000       2.310390000000      -0.139124637051       0.000021725611      -0.000106792265
30 2       0.000000000000       6.931160000000       4.947270000000       0.000037650538       0.000053622883       0.139194461648
31 2       0.000000000000       2.310390000000       8.915050000000       0.000021725611      -0.000106792265      -0.139124637051
32 2       2.310390000000       4.947270000000       4.620770000000      -0.000081847258       0.139132400209       0.000003159248
33 1       8.163640000000       5.628810000000       1.455750000000      -0.170748121940       0.035859577681      -0.043728230054
34 1       8.163640000000       3.612740000000       3.165020000000      -0.170778668993      -0.035868782483       0.043861322689
35 1       8.233520000000       1.455750000000       1.077910000000      -0.036011716115      -0.043707657785       0.170787091434
36 1       8.233520000000       3.165020000000       5.698680000000      -0.036048416567       0.043866721640       0.170812159065
37 1       1.008030000000       3.165020000000       1.077910000000       0.035942776550       0.043811348250       0.170772139026
38 1       1.008030000000       1.455750000000       5.698680000000       0.035989140071      -0.043726563393       0.170789348381
39 1       1.077910000000       8.233520000000       1.455750000000       0.170787091434      -0.036011716115      -0.043707657785
40 1       1.077910000000       1.008030000000       3.165020000000       0.170772139026       0.035942776550       0.043811348250
41 1       1.455750000000       5.698680000000       1.008030000000      -0.043726563393       0.170789348381       0.035989140071
42 1       1.455750000000       3.542860000000       3.612740000000      -0.043737481433      -0.170557770211      -0.035784483698
43 1       1.455750000000       1.077910000000       8.233520000000      -0.043707657785       0.170787091434      -0.036011716115
44 1       1.455750000000       8.163640000000       5.628810000000      -0.043728230054      -0.170748121940       0.035859577681
45 1       3.165020000000       3.542860000000       5.628810000000       0.043848236486      -0.170535080174       0.035765616703
46 1       3.165020000000       1.077910000000       1.008030000000       0.043811348250       0.170772139026       0.035942776550
47 1       3.165020000000       8.163640000000       3.612740000000       0.043861322689      -0.170778668993      -0.035868782483
48 1       3.165020000000       5.698680000000       8.233520000000       0.043866721640       0.170812159065      -0.036048416567
49 1       3.542860000000       3.612740000000       1.455750000000      -0.170557770211      -0.035784483698      -0.043737481433
50 1       3.542860000000       5.628810000000       3.165020000000      -0.170535080174       0.035765616703       0.043848236486
51 1       3.612740000000       1.455750000000       3.542860000000      -0.035784483698      -0.043737481433      -0.170557770211
52 1       3.612740000000       3.165020000000       8.163640000000      -0.035868782483       0.043861322689      -0.170778668993
53 1       5.628810000000       1.455750000000       8.163640000000       0.035859577681      -0.043728230054      -0.170748121940
54 1       5.628810000000       3.165020000000       3.542860000000       0.035765616703       0.043848236486      -0.170535080174
55 1       5.698680000000       8.233520000000       3.165020000000       0.170812159065      -0.036048416567       0.043866721640
56 1       5.698680000000       1.008030000000       1.455750000000       0.170789348381       0.035989140071      -0.043726563393
57 1       3.542860000000       1.008030000000       6.076530000000      -0.170610142395       0.035908372066      -0.043864887361
58 1       3.542860000000       8.233520000000       7.785800000000      -0.170616678399      -0.035978576170       0.043721544571
59 1       3.612740000000       6.076530000000       5.698680000000      -0.035887324018      -0.043881827325       0.170740246642
60 1       3.612740000000       7.785800000000       1.077910000000      -0.035851891022       0.043683107784       0.170706757891
61 1       5.628810000000       7.785800000000       5.698680000000       0.035879387586       0.043709078753       0.170701277751
62 1       5.628810000000       6.076530000000       1.077910000000       0.035831756507      -0.043833519614       0.170692489340
63 1       5.698680000000       3.612740000000       6.076530000000       0.170740246642      -0.035887324018      -0.043881827325
64 1       5.698680000000       5.628810000000       7.785800000000       0.170701277751       0.035879387586       0.043709078753
65 1       6.076530000000       1.077910000000       5.628810000000      -0.043833519614       0.170692489340       0.035831756507
66 1       6.076530000000       8.163640000000       8.233520000000      -0.043885040613      -0.170845996073      -0.036061609611
67 1       6.076530000000       5.698680000000       3.612740000000      -0.043881827325       0.170740246642      -0.035887324018
68 1       6.076530000000       3.542860000000       1.008030000000      -0.043864887361      -0.170610142395       0.035908372066
69 1       7.785800000000       8.163640000000       1.008030000000       0.043705226298      -0.170814765877       0.036003598859
70 1       7.785800000000       5.698680000000       5.628810000000       0.043709078753       0.170701277751       0.035879387586
71 1       7.785800000000       3.542860000000       8.233520000000       0.043721544571      -0.170616678399      -0.035978576170
72 1       7.785800000000       1.077910000000       3.612740000000       0.043683107784       0.170706757891      -0.035851891022
73 1       8.163640000000       8.233520000000       6.076530000000      -0.170845996073      -0.036061609611      -0.043885040613
74 1       8.163640000000       1.008030000000       7.785800000000      -0.170814765877       0.036003598859       0.043705226298
75 1       8.233520000000       6.076530000000       8.163640000000      -0.036061609611      -0.043885040613      -0.170845996073
76 1       8.233520000000       7.785800000000       3.542860000000      -0.035978576170       0.043721544571      -0.170616678399
77 1       1.008030000000       6.076530000000       3.542860000000       0.035908372066      -0.043864887361      -0.170610142395
78 1       1.008030000000       7.785800000000       8.163640000000       0.036003598859       0.043705226298      -0.170814765877
79 1       1.077910000000       3.612740000000       7.785800000000       0.170706757891      -0.035851891022       0.043683107784
80 1       1.077910000000       5.628810000000       6.076530000000       0.170692489340       0.035831756507      -0.043833519614
