80
Config_type=bulk_delta_phase Weight=1.0 Lattice="9.241547553 0.000000000 0.000000000 0.000000000 9.241547553 0.000000000 0.000000000 0.000000000 9.241547553" Energy=-678.63965460 Virial="55.02897 -0.00005 0.00004 -0.00005 55.02910 -0.00001 0.00004 -0.00001 55.02906" pbc="T T T" Properties=species:S:1:pos:R:3:forces:R:3
Ga	      6.93116      2.31039      2.31039         0.000094     -0.000209     -0.000187
Ga	      6.93116      4.29428      4.62077         0.000095      0.004546      0.000088
Ga	      0.00000      6.93116      0.32649         0.000082      0.000097     -0.004468
Ga	      0.00000      2.31039      4.29428         0.000082     -0.000175      0.004554
Ga	      0.32649      0.00000      6.93116        -0.004458      0.000085      0.000094
Ga	      0.32649      4.62077      2.31039        -0.004504      0.000085     -0.000173
Ga	      2.31039      4.29428      0.00000        -0.000177      0.004555      0.000079
Ga	      2.31039      6.93116      2.31039        -0.000195      0.000091     -0.000210
Ga	      2.31039      2.31039      2.31039        -0.000138     -0.000130     -0.000131
Ga	      2.31039      2.31039      6.93116        -0.000214     -0.000196      0.000083
Ga	      2.31039      0.32649      4.62077        -0.000181     -0.004503      0.000086
Ga	      4.29428      0.00000      2.31039         0.004549      0.000079     -0.000175
Ga	      4.29428      4.62077      6.93116         0.004559      0.000088      0.000091
Ga	      4.62077      2.31039      0.32649         0.000084     -0.000177     -0.004506
Ga	      4.62077      6.93116      4.29428         0.000083      0.000092      0.004556
Ga	      6.93116      0.32649      0.00000         0.000093     -0.004467      0.000081
Ga	      2.31039      6.93116      6.93116        -0.000147      0.000094      0.000078
Ga	      2.31039      8.91505      0.00000        -0.000153      0.004728      0.000039
Ga	      4.62077      2.31039      4.94727         0.000046     -0.000151     -0.004650
Ga	      4.62077      6.93116      8.91505         0.000047      0.000065      0.004735
Ga	      4.94727      4.62077      2.31039        -0.004644      0.000046     -0.000150
Ga	      4.94727      0.00000      6.93116        -0.004606      0.000040      0.000072
Ga	      6.93116      8.91505      4.62077         0.000071      0.004740      0.000046
Ga	      6.93116      2.31039      6.93116         0.000079     -0.000144      0.000092
Ga	      6.93116      6.93116      6.93116         0.000065      0.000071      0.000065
Ga	      6.93116      6.93116      2.31039         0.000091      0.000074     -0.000144
Ga	      6.93116      4.94727      0.00000         0.000074     -0.004597      0.000035
Ga	      8.91505      4.62077      6.93116         0.004728      0.000047      0.000068
Ga	      8.91505      0.00000      2.31039         0.004738      0.000042     -0.000157
Ga	      0.00000      6.93116      4.94727         0.000038      0.000075     -0.004606
Ga	      0.00000      2.31039      8.91505         0.000039     -0.000156      0.004732
Ga	      2.31039      4.94727      4.62077        -0.000153     -0.004652      0.000046
O	      8.16364      5.62881      1.45575         0.001810     -0.003775      0.004749
O	      8.16364      3.61274      3.16502         0.001777      0.003760     -0.004637
O	      8.23352      1.45575      1.07791         0.003604      0.004737     -0.001814
O	      8.23352      3.16502      5.69868         0.003567     -0.004590     -0.001758
O	      1.00803      3.16502      1.07791        -0.003663     -0.004626     -0.001799
O	      1.00803      1.45575      5.69868        -0.003625      0.004719     -0.001775
O	      1.07791      8.23352      1.45575        -0.001810      0.003588      0.004729
O	      1.07791      1.00803      3.16502        -0.001803     -0.003660     -0.004633
O	      1.45575      5.69868      1.00803         0.004721     -0.001804     -0.003641
O	      1.45575      3.54286      3.61274         0.004773      0.002004      0.003799
O	      1.45575      1.07791      8.23352         0.004739     -0.001800      0.003590
O	      1.45575      8.16364      5.62881         0.004731      0.001790     -0.003769
O	      3.16502      3.54286      5.62881        -0.004679      0.001996     -0.003814
O	      3.16502      1.07791      1.00803        -0.004621     -0.001793     -0.003663
O	      3.16502      8.16364      3.61274        -0.004617      0.001766      0.003748
O	      3.16502      5.69868      8.23352        -0.004618     -0.001778      0.003574
O	      3.54286      3.61274      1.45575         0.001987      0.003808      0.004760
O	      3.54286      5.62881      3.16502         0.001987     -0.003827     -0.004663
O	      3.61274      1.45575      3.54286         0.003807      0.004764      0.001985
O	      3.61274      3.16502      8.16364         0.003747     -0.004638      0.001771
O	      5.62881      1.45575      8.16364        -0.003781      0.004741      0.001807
O	      5.62881      3.16502      3.54286        -0.003821     -0.004662      0.001995
O	      5.69868      8.23352      3.16502        -0.001760      0.003571     -0.004596
O	      5.69868      1.00803      1.45575        -0.001796     -0.003643      0.004711
O	      3.54286      1.00803      6.07653         0.001938     -0.003688      0.004606
O	      3.54286      8.23352      7.78580         0.001965      0.003623     -0.004784
O	      3.61274      6.07653      5.69868         0.003749      0.004580     -0.001786
O	      3.61274      7.78580      1.07791         0.003770     -0.004788     -0.001834
O	      5.62881      7.78580      5.69868        -0.003765     -0.004770     -0.001828
O	      5.62881      6.07653      1.07791        -0.003788      0.004606     -0.001821
O	      5.69868      3.61274      6.07653        -0.001782      0.003754      0.004580
O	      5.69868      5.62881      7.78580        -0.001827     -0.003767     -0.004782
O	      6.07653      1.07791      5.62881         0.004617     -0.001844     -0.003796
O	      6.07653      8.16364      8.23352         0.004562      0.001735      0.003562
O	      6.07653      5.69868      3.61274         0.004577     -0.001777      0.003750
O	      6.07653      3.54286      1.00803         0.004581      0.001937     -0.003696
O	      7.78580      8.16364      1.00803        -0.004759      0.001766     -0.003637
O	      7.78580      5.69868      5.62881        -0.004765     -0.001822     -0.003761
O	      7.78580      3.54286      8.23352        -0.004766      0.001974      0.003619
O	      7.78580      1.07791      3.61274        -0.004806     -0.001851      0.003782
O	      8.16364      8.23352      6.07653         0.001715      0.003571      0.004547
O	      8.16364      1.00803      7.78580         0.001758     -0.003649     -0.004754
O	      8.23352      6.07653      8.16364         0.003577      0.004548      0.001723
O	      8.23352      7.78580      3.54286         0.003625     -0.004787      0.001976
O	      1.00803      6.07653      3.54286        -0.003696      0.004593      0.001939
O	      1.00803      7.78580      8.16364        -0.003638     -0.004755      0.001768
O	      1.07791      3.61274      7.78580        -0.001831      0.003783     -0.004804
O	      1.07791      5.62881      6.07653        -0.001831     -0.003803      0.004611
