ITEM: TIMESTEP
0
ITEM: NUMBER OF ATOMS
30
ITEM: BOX BOUNDS xy xz yz pp pp pp
-2.5065392129999999e+00 5.0130784459999997e+00 -2.5065392129999999e+00
0.0000000000000000e+00 4.3414536989999997e+00 0.0000000000000000e+00
0.0000000000000000e+00 1.3495566058000000e+01 0.0000000000000000e+00
ITEM: ATOMS id type x y z fx fy fz
1 2       0.000000000000       0.000000000000       1.945240000000       0.000037456433      -0.000014326152      -0.070200114309
2 2       0.000000006667       2.894300000000       0.304020000000       0.000030917780       0.000025427891       0.070265100392
3 2       2.506540003333       1.447150000000       2.553280000000      -0.000039325983       0.000039389822       0.070140275908
4 2       0.000000006667       2.894300000000       4.194510000000      -0.000028028644       0.000068983605      -0.070216647081
5 2       2.506540003333       1.447150000000       6.443760000000      -0.000035176517       0.000003645904      -0.070108452804
6 2       0.000000000000       0.000000000000       4.802540000000      -0.000040279989       0.000015425707       0.070235166447
7 2       0.000000006667       2.894300000000       7.051810000000      -0.000023766692       0.000028293725       0.070133311529
8 2       0.000000000000       0.000000000000       8.693020000000      -0.000013499661      -0.000014818154      -0.070187063213
9 2       0.000000006667       2.894300000000      10.942290000000      -0.000001297536       0.000048741430      -0.070227521828
10 2       2.506540003333       1.447150000000       9.301060000000      -0.000005746682       0.000056370850       0.070146910508
11 2       0.000000000000       0.000000000000      11.550320000000      -0.000042505503       0.000000738464       0.070220351345
12 2       2.506540003333       1.447150000000      13.191540000000      -0.000038578162      -0.000000635315      -0.070037439910
13 1       4.253580003030       1.315490000000       3.373890000000      -0.050362030066       0.087280223689       0.000064393966
14 1       1.518990000000       0.000000000000       3.373890000000       0.100842935394      -0.000031410015       0.000075908707
15 1       1.747040006970       3.025970000000       3.373890000000      -0.050401344826      -0.087336265022       0.000034046420
16 1       3.266040000303       0.131660000000       1.124630000000       0.050355330067      -0.087233042010      -0.000017097593
17 1       3.266040006363       2.762640000000       1.124630000000       0.050338753368       0.087241702416       0.000015733451
18 1       0.987550003333       1.447150000000       1.124630000000      -0.100805531921      -0.000002956771       0.000005359347
19 1       1.747040006363       2.762640000000       7.872410000000      -0.050327329698       0.087252261697       0.000080839545
20 1       4.025530003333       1.447150000000       7.872410000000       0.100793509572      -0.000034913956       0.000062887092
21 1       1.747040000303       0.131660000000       7.872410000000      -0.050398772516      -0.087208392442       0.000048491643
22 1       0.759500003637       1.578820000000       5.623160000000       0.050248529975      -0.087397272856      -0.000132091431
23 1       0.759490009697       4.209790000000       5.623160000000       0.050541811184       0.087242798312      -0.000144595053
24 1      -1.518999993333       2.894300000000       5.623160000000      -0.100715126730       0.000096754283      -0.000115468381
25 1      -0.759499990303       4.209790000000      12.370940000000      -0.050411100205       0.087270924163      -0.000079874590
26 1       1.518990006667       2.894300000000      12.370940000000       0.100830900251       0.000103878736      -0.000117071693
27 1      -0.759499996363       1.578820000000      12.370940000000      -0.050300807742      -0.087412254282      -0.000136408484
28 1      -1.747039993030       3.025970000000      10.121670000000       0.050369803651      -0.087330599069       0.000041513411
29 1       0.759500003030       1.315490000000      10.121670000000       0.050310712661       0.087273597253       0.000063081252
30 1       3.494080000000       0.000000000000      10.121670000000      -0.100710411260      -0.000032271900       0.000086475405
