ITEM: TIMESTEP
0
ITEM: NUMBER OF ATOMS
30
ITEM: BOX BOUNDS xy xz yz pp pp pp
-2.5673038099999999e+00 5.1346076209999998e+00 -2.5673038099999999e+00
0.0000000000000000e+00 4.4467010619999998e+00 0.0000000000000000e+00
0.0000000000000000e+00 1.3822731296000001e+01 0.0000000000000000e+00
ITEM: ATOMS id type x y z fx fy fz
1 2       0.000000000000       0.000000000000       1.992400000000      -0.000012672066      -0.000056666830      -0.169144654418
2 2      -0.000000000000       2.964470000000       0.311390000000       0.000029153672      -0.000116752003       0.169051098347
3 2       2.567300000000       1.482230000000       2.615170000000       0.000075942379       0.000069703845       0.169120451999
4 2      -0.000000000000       2.964470000000       4.296190000000      -0.000033859268      -0.000049381250      -0.169090261523
5 2       2.567300000000       1.482230000000       6.599970000000       0.000083787105       0.000099795968      -0.168964752811
6 2       0.000000000000       0.000000000000       4.918970000000      -0.000008431668       0.000028685470       0.169060003174
7 2      -0.000000000000       2.964470000000       7.222760000000       0.000025241178      -0.000133598109       0.169118451056
8 2       0.000000000000       0.000000000000       8.903760000000       0.000028441237      -0.000022285901      -0.169007396331
9 2      -0.000000000000       2.964470000000      11.207560000000       0.000019243882      -0.000043248817      -0.169136114378
10 2       2.567300000000       1.482230000000       9.526540000000       0.000096761826       0.000069115468       0.169149230475
11 2       0.000000000000       0.000000000000      11.830330000000      -0.000000194222       0.000030359175       0.169077835076
12 2       2.567300000000       1.482230000000      13.511340000000       0.000085761032       0.000103457177      -0.169092916252
13 1      -0.777910000000       1.347380000000       3.455680000000      -0.068518651004       0.118661606463       0.000041131526
14 1       1.555820000000       0.000000000000       3.455680000000       0.136978763209      -0.000028268920       0.000072174392
15 1       1.789390000000       3.099320000000       3.455680000000      -0.068453217413      -0.118649872402       0.000026984386
16 1       3.345210000000       0.134850000000       1.151890000000       0.068632052888      -0.118592725890       0.000094167709
17 1       3.345220000000       2.829610000000       1.151890000000       0.068371873442       0.118710919005       0.000100733176
18 1       1.011490000000       1.482230000000       1.151890000000      -0.137101968630       0.000031314133       0.000025883753
19 1       1.789400000000       2.829610000000       8.063260000000      -0.068588060914       0.118661818858      -0.000013626885
20 1       4.123120000000       1.482230000000       8.063260000000       0.137079303610       0.000044733092      -0.000025229394
21 1       1.789400000000       0.134850000000       8.063260000000      -0.068623673750      -0.118577576552       0.000055399017
22 1       0.777910000000       1.617090000000       5.759480000000       0.068414778435      -0.118688364329      -0.000122654669
23 1       0.777910000000       4.311850000000       5.759480000000       0.068555835225       0.118560754655      -0.000137771328
24 1      -1.555820000000       2.964470000000       5.759480000000      -0.137002764082       0.000009323191      -0.000101042125
25 1      -0.777910000000       4.311850000000      12.670840000000      -0.068553485092       0.118593707717      -0.000067774177
26 1       1.555820000000       2.964470000000      12.670840000000       0.137008282248      -0.000011307512      -0.000013947917
27 1      -0.777910000000       1.617090000000      12.670840000000      -0.068490613768      -0.118697758674      -0.000023137024
28 1      -1.789390000000       3.099320000000      10.367050000000       0.068442817944      -0.118660396142      -0.000033563603
29 1       0.777910000000       1.347380000000      10.367050000000       0.068495194389       0.118662383936      -0.000010543918
30 1       3.578790000000       0.000000000000      10.367050000000      -0.137035641826      -0.000009474821      -0.000008157330
