ITEM: TIMESTEP
0
ITEM: NUMBER OF ATOMS
160
ITEM: BOX BOUNDS pp pp pp
0.0000000000000000e+00 8.4669419730000008e+00
0.0000000000000000e+00 8.4669419730000008e+00
0.0000000000000000e+00 2.5400825916999999e+01
ITEM: ATOMS id type c_pe_atom
1 2     -10.860052245550
2 2      -9.936308499674
3 2     -10.036441070667
4 2     -10.929807023106
5 2     -10.992102676685
6 2     -10.890691575346
7 2     -10.023956541798
8 2     -10.127263609539
9 2      -9.917032282808
10 2     -10.000514023816
11 2     -10.009930419344
12 2     -11.064513031018
13 2     -10.892326815450
14 2     -10.966412973757
15 2      -9.999706474121
16 2     -10.315125102088
17 2      -9.992933624484
18 2     -10.819637498265
19 2     -10.011484845195
20 2     -10.241409052352
21 2      -6.498765897165
22 2      -5.907752210200
23 2      -6.314608978557
24 2      -5.174347054984
25 2      -5.892940269971
26 2      -6.876814443581
27 2      -6.953409677670
28 2      -5.041901572262
29 2      -7.174311746966
30 2      -6.030849101363
31 2      -5.842688838998
32 2      -6.052327521225
33 2      -5.417617713265
34 2      -5.465178650798
35 2      -5.918147047745
36 2      -5.344773059534
37 2      -6.599365301356
38 2      -5.491021669051
39 2      -6.963683777548
40 2      -6.931397375233
41 2      -6.314105803198
42 2      -6.623293080966
43 2      -5.899079375226
44 2      -5.648009292736
45 2      -5.446828955155
46 2      -5.397004629057
47 2      -5.537131892942
48 2      -6.558219193201
49 2      -5.563144744731
50 2      -6.672330952881
51 2      -6.815815581876
52 2      -5.734988471965
53 2      -5.334983594563
54 2      -5.812462609292
55 2      -5.894906680732
56 2      -6.239394672024
57 2      -5.898708065300
58 2      -5.913367977524
59 2      -5.913296401275
60 2      -6.941622704881
61 2     -10.568574577056
62 2     -10.458093595622
63 2     -10.287413384942
64 2     -10.487877929745
65 1      -6.293404205098
66 1      -6.534654946556
67 1      -3.166177394592
68 1      -2.687164802110
69 1      -2.557575302095
70 1      -2.817780971805
71 1      -6.355985136861
72 1      -2.725297735963
73 1      -6.460465018506
74 1      -2.671120807590
75 1      -2.589441327939
76 1      -6.971436645883
77 1      -3.440313631573
78 1      -3.225521788337
79 1      -2.663231599237
80 1      -7.355653555839
81 1      -6.424796354757
82 1      -6.282636663392
83 1      -6.576548539409
84 1      -6.703992610974
85 1      -3.116092841873
86 1      -2.776565589768
87 1      -6.258843005568
88 1      -6.692481651322
89 1      -6.762513949605
90 1      -6.369227265360
91 1      -2.714999508930
92 1      -6.015677663966
93 1      -3.252328861458
94 1      -2.660472156525
95 1      -7.448045208075
96 1      -2.707189738319
97 1      -2.736673078733
98 1      -7.060266853033
99 1      -6.974198479272
100 1      -3.117397554472
101 1      -6.075974318114
102 1      -3.020334909829
103 1      -3.447537123781
104 1      -6.462964698748
105 1      -2.755236047808
106 1      -6.303433679846
107 1      -2.777245532440
108 1      -2.995202967559
109 1      -6.704480584393
110 1      -6.280496689209
111 1      -2.784850407252
112 1      -2.648327024486
113 1      -3.287651970054
114 1      -2.560383450548
115 1      -6.344597533287
116 1      -6.408003444814
117 1      -6.668715112032
118 1      -6.310934091164
119 1      -3.232881665341
120 1      -3.562156990555
121 1      -6.630767582463
122 1      -6.847172375075
123 1      -2.895928056755
124 1      -2.421098938793
125 1      -6.874116078581
126 1      -2.933043584352
127 1      -6.649640234021
128 1      -6.678553080138
129 1      -3.374881096609
130 1      -6.322914571774
131 1      -3.346144985377
132 1      -6.372549183420
133 1      -6.556731698370
134 1      -7.453931768007
135 1      -6.068755481502
136 1      -3.515245855856
137 1      -2.796749080488
138 1      -6.077816336146
139 1      -6.459350537964
140 1      -2.729411946426
141 1      -2.821440503307
142 1      -6.554344075024
143 1      -2.715267593959
144 1      -6.318977058642
145 1      -2.334427985349
146 1      -3.430099240765
147 1      -6.367209064909
148 1      -2.740702011329
149 1      -2.821350162281
150 1      -6.619743415964
151 1      -6.342058495958
152 1      -7.012078292059
153 1      -6.244438894307
154 1      -3.257185126891
155 1      -2.444160641330
156 1      -6.154173597121
157 1      -6.253004367969
158 1      -3.392991191501
159 1      -2.925910881659
160 1      -3.019375771361
