ITEM: TIMESTEP
0
ITEM: NUMBER OF ATOMS
160
ITEM: BOX BOUNDS pp pp pp
0.0000000000000000e+00 8.4669419730000008e+00
0.0000000000000000e+00 8.4669419730000008e+00
0.0000000000000000e+00 2.5400825916999999e+01
ITEM: ATOMS id type v_vir_xx v_vir_yy v_vir_zz v_vir_xy v_vir_xz v_vir_yz
1 2      -2.690871540850      -0.569748574844      -0.626656889692       0.039335515449      -0.230761779155      -0.153126542165
2 2      -2.725433074457      -1.904126996557      -2.479602438208      -0.308704530880       0.353057664556       0.201239593325
3 2      -1.762388815519      -2.574943243234      -2.252121727289       0.383269167788       0.511990036232       0.006969378020
4 2      -0.298341729669      -2.342265075233      -2.363600785266       0.217212472742      -0.265163309726       0.520559421535
5 2      -2.410083838500      -0.352885136041      -2.157887479640       0.046865696130      -0.115968008389       0.092759996725
6 2      -2.622085138503      -0.610523584635      -1.204413546911       0.256021470774      -0.063099716133      -0.223455703695
7 2      -1.941654335413      -2.858382283536      -0.647347751121      -0.631403662354       0.070652404841      -0.101238165335
8 2      -0.228417935101      -3.235124523685      -2.249589564475       0.084769268056      -0.247589896430      -0.344751717947
9 2      -3.238807226115      -2.069569369055      -0.599089792218      -0.545517756997       0.039552577445      -0.318256277204
10 2      -1.852079275291      -2.672704864784      -2.277137793275       0.368203552728       0.176508296189      -0.271580756614
11 2      -3.264486050616      -0.618737628872      -2.439270678782      -0.007802646556       0.237089503391      -0.057048597093
12 2      -0.189441199669      -2.363752979364      -2.320100564335       0.055936080912       0.448172332730       0.419712245239
13 2      -0.778745964688      -2.681143765407      -1.443275933464      -0.303335500279       0.492290663206      -0.194665116996
14 2      -2.309313229854      -0.359491731344      -2.227280571429       0.069585642338      -0.102708075599       0.062680779515
15 2      -2.669241666421      -1.825340021335      -2.236403643877       0.438427015346       0.153353567309       0.456650632677
16 2       0.078255121959      -3.068111909127      -2.551323622119      -0.161409666659      -0.292807105772      -0.098193182393
17 2      -2.724138895422      -2.124981004509      -0.708029927449       0.533113194663      -0.006600590091       0.098823075288
18 2      -0.613759177712      -2.693552596266      -1.233572636476       0.134467252192      -0.218308572188      -0.258021082108
19 2      -1.949507780022      -2.849608277212      -0.688831811457      -0.620382641632       0.117622253536      -0.094034160102
20 2      -3.164309257260      -0.063656773238      -2.585157221439       0.233750148108       0.175543328949       0.480986381414
21 2      -1.536057683107      -1.651117386153       0.551926645312      -0.372312154335       0.065370920537       0.107188380159
22 2      -0.961836079035      -1.061215600025      -2.753339181179      -0.461641443531      -0.568187779909       0.202900934726
23 2      -2.563056582074       0.143193816117       0.329465303335       0.020775237958       0.185141293494       0.489121904512
24 2      -1.501799054252      -2.230248794732      -1.926507326329      -0.557911727989       1.052404516180       0.778796875051
25 2      -2.328703847591      -0.412511326189      -0.915182298546      -0.135055949405       0.162953384021       0.954863205192
26 2      -1.318961028819       0.672870033212      -1.187642338357       0.187077079973       0.076372769469      -0.498615977178
27 2      -1.170418371967       1.065787095012      -1.553134999480      -0.264589059849       0.119860018127       0.211801546412
28 2      -1.982007498130      -1.804765399877      -2.080333227853       0.620078368844       0.891099018741      -1.034326811392
29 2       0.648664397910      -1.190337976924      -1.072449768639       0.038592944271       0.370538594300      -0.317995305214
30 2       0.267543852075      -2.464224008312       0.562085759491       0.523602795887       0.042049603128       0.349360725158
31 2      -0.919223661477      -1.184938874066      -2.817583027962       0.363515396405       0.826953951458       0.127822170045
32 2      -0.800298717688      -0.771971244185      -2.831927043632       0.348999425195      -0.453196966094       0.291703491760
33 2      -1.857725100252      -1.977265279062      -2.383473808099       0.514642181619       0.003859342857       0.686571171815
34 2      -2.044127334327      -1.787930840750      -2.700686842379      -0.527345355657      -0.137695784580       0.840589808023
35 2      -1.101863903956      -0.843033075362      -2.263537272642       0.288689451858       0.265571684779       0.864595794680
36 2      -2.242760433424      -0.753484712452      -0.995964894520       0.883486214817      -0.195772971350       0.272628106999
37 2      -1.342292723014      -1.669438910867       0.512104505650      -0.269450398968       0.584373869634       0.230883189812
38 2      -1.708611751746      -2.044788232469      -2.209595400231       0.395321649181      -0.329797775943      -0.054588842088
39 2      -1.285333114469       0.983390993738      -1.498723156181       0.168788212443      -0.196727837952      -0.459645204870
40 2       0.882871079178      -1.483029428586      -1.669517225132      -0.162047349380      -0.284683440019       0.024363035842
41 2      -2.173750998619      -1.962604433883      -1.427305402121      -0.004395207016      -0.925549670981       1.027066682481
42 2      -0.981569101972      -2.177581470541      -0.110269008200       0.497646470141      -0.750640886977      -0.297579731241
43 2      -0.988972208981      -1.018700675323      -2.874720357349      -0.356317619620       0.819710086291       0.008720375708
44 2      -1.783389679457      -2.248450071655      -2.424318100553       0.515437657162      -0.462044758149       0.013432456336
45 2      -2.097623464687      -1.799053615953      -2.359117604187       0.453564594642       0.043988407151      -0.430591850579
46 2      -2.034219684686      -1.913310971453      -2.073968652235      -0.286805586861       0.158715827004      -0.419366362028
47 2      -1.757174448522      -1.990627314965      -2.142740481723      -0.478235750825      -0.537186308956       0.068382167548
48 2      -1.011479735620      -2.302848513073      -0.437751755173      -0.434790292879      -0.893106329771       0.347493845871
49 2      -1.752208372409      -2.009102263315      -2.311640767485      -0.542999146157      -0.581650040109       0.191804026469
50 2       0.586644166336      -1.371660487260      -1.466945874674      -0.183153516092       0.396745399415      -0.053319507930
51 2       0.811480722906      -1.290917198502      -1.470116945792       0.142532201849      -0.363963131279      -0.114887098775
52 2      -1.964286432850      -0.745819935396      -0.684698636762       0.017091082039       0.281970902445      -0.531876305238
53 2      -0.961444175943      -2.065679382955      -0.629276335426      -0.669942333739       0.079256758401      -0.393240006912
54 2      -1.953246564880      -0.737149319361      -0.609403514446       0.045817107358       0.317225368322      -0.536522783117
55 2      -0.830587970426      -0.750116964781      -2.195549915449      -0.191557586043      -0.017234752892      -0.486721356803
56 2      -1.982555948109      -1.953950376177      -1.321862529253      -0.067725897306      -0.957990577442      -1.093253280415
57 2      -0.357711597504      -2.366171627138      -0.902982578455      -0.157497851925       0.973372854491       0.042230781444
58 2      -1.219855930538      -0.894179383933      -2.761745654703       0.423120405487       0.224914790104       0.783714930079
59 2      -0.762034990434      -0.751787904841      -2.226047617103      -0.215717726472       0.126106297273      -0.451077723599
60 2      -1.128621156512       0.986021261722      -1.537711986313      -0.252850555602       0.194882693286       0.086128646843
61 2       0.697711661938      -1.186099388727      -1.162189983796       0.011978297082       0.029112175889       1.125795050642
62 2      -0.954809257564       0.471658273670      -0.940458951071       0.053202585898       1.093602779803       0.192936702753
63 2       0.479597450386      -1.033998580003      -0.900351217416       0.035370930609      -0.032503286747      -1.206100405206
64 2      -1.039645400646       0.617390010307      -1.008355956654       0.052210400908       1.136158847651       0.040250370034
65 1       2.678681917207       2.257895600680       2.014479237761       0.398578694318       0.120069235721       0.161561769054
66 1       2.082577415511       2.191991732433       2.610332380253       0.451794851875       0.344778839872       0.299019781087
67 1       0.202550498522       1.532874192305       2.292691516175      -0.239998434078      -0.252138608764      -0.588169691778
68 1       1.302209844542       1.585505423490      -0.180361832717       0.383106795047      -0.045401825946       0.024324750338
69 1       1.869356405666       0.395641964510       1.786956884418       0.051585120319       0.415113448618       0.000394287140
70 1       1.849592194709       0.502273140914       1.740621227945      -0.148449385981       0.425319673873      -0.228649781060
71 1       2.024593731617       2.156143410194       1.574244765170      -0.437496390148      -0.312765250711       0.310771250673
72 1       0.889418196198       1.398551503268       0.878784930625      -0.099109688276       0.349170447269      -0.024021267906
73 1       2.212714727511       2.121736857048       1.718245935556       0.404523559807      -0.577241290911      -0.337255665828
74 1       0.721365430943       1.439700620686       1.100345883240       0.233656492535       0.380010832924      -0.003523395093
75 1       1.869838731765       0.438725663048       1.776402406174       0.068261487279       0.511654215072       0.024568059221
76 1       2.119542914947       1.808408328643       1.799813597643      -0.642507628893       0.687224828986      -0.796006498026
77 1       1.062947284753       1.859680652885       0.660620399175      -0.226998797588      -0.290126579709       0.115052036993
78 1      -0.102964736479       1.722153101692       1.813819963508       0.086961683880      -0.242794852085       0.409521989929
79 1       1.822267915717       0.457047261857       1.887222230988      -0.041127914771       0.468265827144      -0.105867734249
80 1       2.172979185049       2.024838646467       2.207823038612       0.690648510589       0.754397717389       0.738640609824
81 1       2.221309184216       2.143207518635       1.717162323543       0.423282563395      -0.596103640441      -0.334732265898
82 1       2.286919401026       2.136450338958       1.826355759473       0.249933497927      -0.386476704319      -0.260935792094
83 1       2.652980307324       2.275694447479       2.093577179119      -0.394436271216       0.158374488474      -0.431319518300
84 1       2.112765646498       2.056145831348       2.892280358398      -0.144119043353       0.358026014782      -0.580050098732
85 1       0.896295138568       1.560130681515       0.883695357224       0.112354701240      -0.453476473802      -0.067547996587
86 1       1.402831198095       1.592638288084      -0.075493654731       0.406944379952      -0.043093468157       0.013873124317
87 1       2.317956225027       2.394929417404       2.409382842438      -0.444422712436       0.365563570061      -0.213378710091
88 1       2.126548019752       2.085915989328       2.891468432736      -0.137302765627       0.377896327750      -0.687402509657
89 1       1.760877900614       2.327020241818       2.648670983502       0.111658837104       0.458538081754       0.664572419684
90 1       2.742817644391       2.249899551220       2.043546442481       0.402293231889       0.124305803190       0.173071952781
91 1       0.764632566819       1.295596478697       0.931777381112      -0.139755980535       0.357953783356      -0.033561545073
92 1       1.972466956301       2.146927489249       2.312065567507      -0.226458476609      -0.420384953278       0.444875772023
93 1      -0.235765434627       1.646396734218       1.768278704159       0.146673063949      -0.105286897374       0.359870058091
94 1       1.573836340580       1.710302073189       0.507708360027      -0.362328214846      -0.371620410369      -0.070292200232
95 1       2.136572344817       2.012698544103       2.124339674639       0.691531972713       0.776812584358       0.769491744531
96 1       1.987027019704       0.767428673184       1.600243436607       0.181408046056       0.114268725931       0.015730517113
97 1       0.856519585106       1.912734809271       1.582547305901       0.194554329648       0.220276077652       0.057501374917
98 1       2.001611520401       2.059766349738       1.964762672660       0.409571462301       0.657727838235       0.658725610788
99 1       2.235859610032       1.726071247940       1.783950655687       0.595075648552      -0.745357381194      -0.549409987604
100 1       1.485005759113       0.329544602461       2.380084393679      -0.203807080052      -0.600916006626      -0.381608707524
101 1       2.215749585320       2.359391499139       2.057380056810      -0.352273974068       0.309168848169      -0.538543788269
102 1       1.321789053599       0.639845849829       0.520887811166      -0.270991821668       0.263368586915       0.131586890473
103 1       1.026729283051       0.557787522978       0.999688192514      -0.009547761767      -0.193448654193      -0.229430724105
104 1       2.299090198163       2.599754503639       2.173981837877      -0.308163933666      -0.309020254498       0.102436155012
105 1       1.489214984551       0.628823011413       1.137736616132       0.184322218920       0.021106548793       0.334208374592
106 1       2.001623884342       2.570221381231       2.197495135922       0.403292298122      -0.103633520698      -0.391690881354
107 1       1.835681112774       1.705787491427       0.679095933382      -0.383941983557       0.174324283084      -0.500476477082
108 1       0.472110818761       1.568461975607       2.137162959221       0.099864104573      -0.024538919858      -0.568660060448
109 1       2.319635928344       1.794411508746       2.773817865228      -0.039924314629      -0.404191770518       0.344173284553
110 1       2.135164102884       1.976587376543       2.519665331535      -0.398455194226      -0.082087004384       0.063354025446
111 1       1.497349741592       1.913496836633       0.700200888685       0.356615497668       0.119469668785       0.479659446582
112 1       0.358267657583       1.920260647356       1.811058912711       0.013486656471       0.028309854697       0.436915998517
113 1       1.560756636748       0.983545681623       1.115263502826       0.063367588504       0.194047889659      -0.427873267225
114 1       1.576625702075       1.687559563200       0.163580889840       0.187236113846       0.293411669368      -0.233929448967
115 1       2.188204757345       2.031538223033       2.712324655066      -0.163135570942       0.644931645302      -0.287850960301
116 1       2.220209376092       2.125574637538       1.688180105383      -0.523496130575       0.373834421752      -0.407565212754
117 1       1.974318955123       2.031162036221       2.115270037101       0.595226048984      -0.397329160845      -0.614708773951
118 1       2.315198393546       2.377138607995       1.890290085165       0.144535640101      -0.176484123591      -0.482745276375
119 1       1.477653826807       0.189816367604       2.236098961512       0.194224594496       0.618313447126      -0.435118866033
120 1       1.831354704418       1.081267653239       1.081258589548      -0.190457152029       0.307428320332      -0.491096774420
121 1       2.287799555516       2.254535228675       1.876470544098       0.499473434511       0.445944675778       0.416027538176
122 1       2.398593607702       1.828378762947       2.798090041709       0.041006481485       0.716592546095       0.376437616055
123 1       0.578130999739       1.946816856981       1.406942488117      -0.113427185447       0.077305660756       0.193811192118
124 1       0.525299060513       1.984516674827       2.261864818614       0.072432396378       0.267014103298       0.326310459138
125 1       1.756150538840       2.160972535137       1.810436858489      -0.619447645333      -0.744230631885       0.649441042523
126 1       1.768663359360      -0.007467690948       1.968344115470       0.156652223554      -0.392700424014       0.238977539997
127 1       2.204470475541       2.211915441798       2.787150523236       0.378902194725       0.339092059000       0.254977333314
128 1       2.311332911941       2.269318180078       1.973961637109       0.531468926813       0.451053114552       0.181421189267
129 1       1.615069573483      -0.256200390836       1.838526291441      -0.161755489879       0.474656941643       0.178421480653
130 1       1.880734237057       2.227217338211       2.652362556571       0.175931404040       0.227377401330       0.628058582712
131 1       0.821308550021       1.923604016800       0.948405185196       0.181178007320      -0.571163974799      -0.201137698942
132 1       2.412856704579       2.269462014222       2.266256085560       0.385288028917      -0.106861937555      -0.051761955307
133 1       2.245408814910       2.437943082263       2.434416757429      -0.603215442078       0.622870348407      -0.256972655412
134 1       1.840790434182       2.218729941478       2.191376717235      -0.647083584037       0.580722023045      -0.913060162969
135 1       1.929888218589       2.126814820138       2.470515364547      -0.245944959593      -0.422651651018       0.449186709996
136 1       1.831867509490       1.120008707902       0.821373252160      -0.221249566410       0.172168183495       0.548182439855
137 1       0.322373765079       1.824527141691       1.845782487050       0.131042425161       0.077212828330      -0.174513465142
138 1       2.221648099896       2.352680477212       2.177542786570       0.295397779512      -0.383356361715      -0.315085089964
139 1       2.370211690634       2.173651264231       2.320243527595      -0.416373549502       0.327185745262      -0.049366117745
140 1       1.950826091425       0.525494198677       1.823559821961      -0.173454871382       0.346762957481      -0.193040970650
141 1       1.576700426386       1.582165229245       0.019922998380      -0.412587436966      -0.347212092513      -0.276560072787
142 1       1.768757847940       2.133441029614       1.460797698955      -0.477770964768      -0.282861461166       0.622748220541
143 1       1.982599466438       0.526094321398       1.411828429142       0.194296936253       0.223839084724       0.105910353030
144 1       2.184613876219       2.129540305662       2.386625941691       0.311435009203       0.557717530788       0.592461704858
145 1       0.579557398989       1.945541661777       2.454508983805      -0.115796121784       0.219796579490      -0.257605608408
146 1       0.346581719835       1.302848149546       1.141704566829       0.044657842051       0.299780065767      -0.055171822077
147 1       2.395477527488       2.428270287117       2.442856791181      -0.475145814017       0.376430161383      -0.244729124649
148 1       0.587324047262       1.737774076314       1.736098488683      -0.087378629064       0.309366709227      -0.084646562284
149 1      -0.088073723374       1.770968785936       1.697304518477      -0.196087223023      -0.131697174754      -0.383987779438
150 1       2.050681704029       2.126418243549       2.747816078928       0.183086886355      -0.530546992253      -0.203309804214
151 1       2.753766528506       2.364303609056       2.133982008461      -0.250570955938       0.164830314918      -0.125306855945
152 1       2.226175858277       2.350708668430       1.959277210285      -0.519023641043       0.582009055166      -0.512328276955
153 1       2.033732491611       1.970266683833       2.507561509640       0.424155838260       0.282041257733       0.279966619857
154 1       1.889627596746       1.136420560281       0.813665719361       0.257818144535       0.299568335433       0.464976026864
155 1       1.619270063451       1.606434930604       0.011138380475      -0.283358621658      -0.043464574353       0.137186457827
156 1       1.803902993906       2.125165155933       1.750539793564      -0.441194673249      -0.307226917310       0.665598844836
157 1       2.319224779543       2.150347148613       2.350151016009      -0.155990770681      -0.293022300373       0.517171816189
158 1       1.089722590044       1.851466691865       0.707921414419      -0.230708298254      -0.432579272035       0.162024244135
159 1       1.454574864135       0.727565387699       0.537425842577       0.141717287664       0.101890861311      -0.004325541137
160 1       1.937228402184       0.474172437109       2.164735127789      -0.071155623366       0.285748762796       0.086566073604
