ITEM: TIMESTEP
0
ITEM: NUMBER OF ATOMS
160
ITEM: BOX BOUNDS pp pp pp
0.0000000000000000e+00 8.4669419730000008e+00
0.0000000000000000e+00 8.4669419730000008e+00
0.0000000000000000e+00 2.5400825916999999e+01
ITEM: ATOMS id type x y z fx fy fz
1 2       1.227090000000       5.256190000000      22.343100000000      -0.401834828824       0.194422956337      -0.029578513859
2 2       5.261500000000       0.856160000000      13.825460000000       0.054450335972       0.047073594798      -0.263748463063
3 2       7.240000000000       7.486990000000       7.469540000000       0.009261957873      -0.230450080362      -0.202367708410
4 2       7.369600000000       7.213900000000      15.943870000000       0.068060307188       0.531491241754       0.038980716971
5 2       5.285540000000       5.304360000000       0.992380000000       0.305578343838       0.073913286437      -0.040640541282
6 2       3.064620000000       3.238650000000       7.287660000000       0.139298408915      -0.173582754099       0.105616455361
7 2       0.964860000000       1.058120000000       1.096520000000       0.118763630704       0.194255550094      -0.139700061299
8 2       5.228100000000       1.036870000000       5.299740000000      -0.024159991644       0.226044278414      -0.105705734205
9 2       3.218670000000       3.001420000000      15.833660000000      -0.070037598583       0.154610632950       0.022896205606
10 2       5.442980000000       1.131930000000      22.157040000000      -0.025726472299       0.062142040609       0.232739344569
11 2       3.177730000000       7.335650000000      11.643550000000      -0.167046693320       0.062640432457      -0.049271431511
12 2       7.507430000000       3.235870000000      20.032360000000      -0.109869150506      -0.443030385689       0.087256219310
13 2       1.032740000000       5.155620000000      13.634880000000      -0.012233042161       0.238505759113       0.081635813264
14 2       7.406800000000       3.259750000000       3.239860000000      -0.336743538807      -0.079805438218       0.046797678190
15 2       5.153480000000       5.386520000000       9.479900000000       0.240500854695      -0.050876291949       0.153694346409
16 2       7.443320000000       7.526350000000      24.368700000000       0.011657429861      -0.277619600091      -0.063964605139
17 2       3.227730000000       7.534200000000      20.145570000000       0.125104504337      -0.232538407844      -0.128481214559
18 2       0.925900000000       1.085500000000       9.633270000000       0.184883930918      -0.188351586389      -0.190711080039
19 2       3.260930000000       7.506810000000       3.139220000000      -0.124961022809      -0.180207629305       0.073484877344
20 2       1.192720000000       1.042600000000      18.018200000000      -0.288278242913      -0.073889842275      -0.124264785372
21 2       3.981140000000       0.187380000000       8.477310000000       0.064337707924      -0.047991999847       0.021079038958
22 2       6.204090000000       6.185110000000      12.677300000000       0.339604694961      -0.053797019009      -0.158885113569
23 2       2.184390000000       2.151110000000      21.182740000000       0.001909660715      -0.101999603156       0.080171491914
24 2       6.480230000000       6.373610000000      21.144380000000      -0.033669795461      -0.030496486219       0.359570249896
25 2       1.988520000000       6.477020000000       8.379900000000      -0.158731386457      -0.234676143995      -0.039813494774
26 2       8.411050000000       2.088820000000       6.311190000000      -0.280932803026      -0.206708049834       0.148130371964
27 2       2.016810000000       2.122170000000       4.269970000000       0.169484586692      -0.097172941888      -0.255371443833
28 2       0.060120000000       2.038130000000      14.789390000000      -0.194261075686      -0.083247015242       0.355982931168
29 2       0.161230000000       6.278930000000      19.003520000000       0.083312960094       0.343703952034       0.326763445992
30 2       6.341020000000       0.055000000000       2.125550000000       0.013404197308      -0.012425979419      -0.041285065301
31 2       6.162410000000       0.071940000000      10.644560000000       0.451576394458      -0.126241535017       0.237683605858
32 2       4.214960000000       2.221140000000      19.003530000000       0.365985241213       0.136568321097      -0.247097586815
33 2       6.482870000000       8.438770000000      19.062520000000      -0.222039736448       0.502341517581      -0.262832116715
34 2       6.428530000000       2.063490000000      16.911430000000      -0.073232405422      -0.486281807514       0.300433834401
35 2       0.163390000000       2.083690000000      23.342440000000      -0.015658601426       0.273740545925       0.109059033170
36 2       2.063350000000       8.256170000000      14.908240000000      -0.147353216334       0.127283849724       0.013350404822
37 2       4.053780000000       6.099810000000      14.824240000000       0.166155792821       0.084627926484       0.146517728901
38 2       6.304320000000       4.248040000000       6.384240000000      -0.259742932384       0.229530583546      -0.337769790028
39 2       4.261280000000       6.451110000000      23.323310000000       0.356604904836       0.430759250396      -0.153000607771
40 2       0.097950000000       4.233550000000      16.925780000000       0.169294775485      -0.308315922424      -0.143452256208
41 2       2.109310000000       4.287600000000       2.115530000000      -0.008934502044      -0.008806341162      -0.012212798606
42 2       4.172280000000       4.359020000000      21.111600000000       0.308149624177      -0.070013645887      -0.248098169007
43 2       4.183860000000       8.276280000000      16.994360000000       0.445802625144       0.103987084139       0.255107970418
44 2       6.388280000000       4.284910000000      23.222900000000       0.382901883045      -0.082735853571       0.350423046742
45 2       8.404990000000       6.289820000000      10.556460000000      -0.182146511269       0.235813795496       0.276679574564
46 2       8.453100000000       8.388550000000      12.730210000000      -0.160942910220      -0.172092610877      -0.231592913918
47 2       0.019110000000       4.328700000000       0.046610000000      -0.355069158768      -0.098426053423      -0.319100069695
48 2       6.280630000000       4.107880000000      14.787230000000       0.146266686532       0.005557831552      -0.307877423361
49 2       4.196490000000       4.235060000000       4.186950000000       0.351894109361       0.145755002294       0.279598914577
50 2       2.145680000000       2.056180000000      12.630760000000       0.300322833885      -0.252813809972       0.232665435357
51 2       2.113490000000       4.163900000000      10.601780000000       0.166847261439       0.281829016997      -0.227973619916
52 2       0.039380000000       6.511820000000       2.218660000000       0.073161250595      -0.250484518350       0.069257335521
53 2       0.204890000000       8.427500000000      21.267870000000      -0.255249506724      -0.036864956542      -0.004352471520
54 2       4.167320000000       2.052110000000       2.008420000000      -0.037427956926       0.255114145397      -0.043677866569
55 2       6.274950000000       2.070070000000      25.352440000000      -0.088122010133       0.326536024820      -0.148901255081
56 2       8.449410000000       4.177220000000       8.465710000000      -0.113415789374       0.159484994349      -0.022009255996
57 2       6.148160000000       2.184880000000       8.567270000000       0.209596799150       0.152948185868       0.003447188535
58 2       4.067820000000       6.493820000000       6.294350000000       0.037165311752      -0.384963675317      -0.263998877627
59 2       6.406970000000       6.499830000000       4.291340000000       0.129147276269      -0.405532793915       0.131689032393
60 2       2.205040000000       6.453140000000      25.373410000000      -0.255254911121       0.107704136579       0.204429259598
61 2       5.213010000000       3.152180000000      11.683440000000      -0.059666365103      -0.026687824795       0.019346330482
62 2       3.213450000000       1.077280000000      24.318570000000       0.106421400588      -0.185808539076       0.090218834069
63 2       3.196340000000       5.230500000000      17.985080000000      -0.012584837349      -0.008602410977      -0.043406449988
64 2       0.998670000000       7.487290000000       5.289090000000      -0.052187154051       0.048518082427      -0.068172585125
65 1       2.145630000000       2.160830000000       2.139320000000       0.276627163883       0.122086895830       0.251995424682
66 1       6.224130000000       6.295470000000       6.311760000000       0.056186820041      -0.131818398344      -0.203540979919
67 1       4.319960000000       8.390750000000       6.500880000000       0.005017199300       0.127265822246      -0.143369072421
68 1       4.357530000000       0.130830000000       2.133240000000      -0.032385514656      -0.045357225217      -0.042194838011
69 1       8.339660000000       6.463110000000       4.157770000000       0.253383600964       0.018611603252       0.230887136874
70 1       0.037600000000       2.232120000000       4.325290000000       0.153544443122      -0.136663431959       0.130733214877
71 1       6.251720000000       4.203090000000       8.439110000000       0.228160495783      -0.303266026843      -0.109691005399
72 1       1.908490000000       4.504990000000       0.253200000000      -0.082293259556      -0.193539068571       0.178664223838
73 1       8.453270000000       4.403660000000       2.104190000000       0.278961989625       0.077434901429      -0.116280991897
74 1       8.184210000000       4.043360000000       6.605580000000      -0.023608332189       0.082131503169       0.162155262522
75 1       4.341520000000       2.099260000000       0.065600000000      -0.269569707201       0.020343426922      -0.162511500005
76 1       4.059560000000       6.442330000000       8.332570000000      -0.166458131977       0.112619238005      -0.118922267985
77 1       2.131670000000       0.079490000000       4.218920000000       0.096589647802       0.195157229892      -0.027362710376
78 1       6.202380000000       8.406970000000       4.131720000000      -0.007639360661       0.227238331514       0.044172307026
79 1       2.130820000000       6.492810000000       6.434100000000      -0.199031085891       0.050192595698      -0.270146106911
80 1       6.290260000000       2.139800000000       2.053530000000      -0.089090993031      -0.216261932461      -0.092300660964
81 1       4.232800000000       4.164110000000       2.124890000000      -0.282268997481      -0.108978815610       0.137710811153
82 1       4.265970000000       4.375740000000       6.232140000000      -0.146058082377      -0.098030379409      -0.028873053212
83 1       8.269290000000       2.122860000000       8.460740000000      -0.036138616644       0.211979478638      -0.278319497111
84 1       0.040530000000       6.374270000000       0.083470000000       0.345313188334      -0.106501664395      -0.080127103064
85 1       8.326540000000       0.066330000000       6.371690000000       0.117237715211       0.241095763197      -0.017347963871
86 1       8.326720000000       8.436780000000       2.099760000000       0.033153333470       0.041848814997       0.036662757163
87 1       4.281980000000       6.297320000000       4.285220000000      -0.100158105572       0.007717666635       0.133591673048
88 1       4.168300000000       2.189960000000       4.158590000000      -0.287707157695       0.049560435144       0.069681231693
89 1       6.322110000000       2.181890000000       6.416210000000       0.304812063636       0.033970291801       0.003887535300
90 1       2.074580000000       6.410220000000       2.090650000000      -0.284580263712      -0.107080104957      -0.205903167737
91 1       2.308390000000       4.071140000000       3.976040000000       0.097524263149       0.197056968814      -0.140850395703
92 1       6.225870000000       4.368610000000       4.321980000000       0.096554920504       0.025714363752       0.064869123027
93 1       6.469170000000       0.159550000000       0.113760000000       0.009074798511      -0.166813667109      -0.011755545545
94 1       2.073280000000       8.417570000000       8.646660000000       0.112271393669       0.344365209507       0.078407819209
95 1       6.390970000000       6.429580000000       2.180670000000       0.075202610666       0.197661219346       0.136441861665
96 1       1.925530000000       2.214990000000       6.223720000000      -0.046124159826      -0.125011584285       0.108527152776
97 1       2.010150000000       2.186730000000      10.671420000000       0.253271881493       0.066577131833       0.008823641773
98 1       6.273000000000       6.182710000000      14.745990000000      -0.154484199035      -0.234254989684      -0.191548952700
99 1       4.155620000000       8.282150000000      14.961060000000      -0.070791259951      -0.220103050732       0.153530967565
100 1       4.267800000000       8.277210000000      10.445190000000      -0.198819856629       0.043373102395       0.118675788253
101 1       8.319260000000       6.355690000000      12.599610000000       0.040970525531      -0.102642902429      -0.074805705289
102 1       0.190290000000       1.795780000000      12.923200000000      -0.145059135307      -0.041786957461      -0.044285002731
103 1       6.636140000000       3.928580000000      16.668150000000      -0.150762906147      -0.023504466308       0.000667178444
104 1       2.047260000000       4.356910000000       8.471130000000      -0.203739404661       0.010585733031       0.271186795328
105 1       0.144260000000       4.414420000000      10.326470000000      -0.119311479996       0.031397884666      -0.150710814872
106 1       0.012460000000       4.060090000000      14.823730000000      -0.181430981601      -0.041246129219       0.250356384586
107 1       4.203260000000       2.100290000000       8.286620000000      -0.382508691299      -0.115499064851      -0.075578790452
108 1       4.140610000000       6.362210000000      16.806300000000      -0.079633264532      -0.082061410687       0.322870785273
109 1       2.052960000000       8.426740000000      12.755080000000      -0.033586880293       0.288246507464      -0.117775336591
110 1       6.402260000000       8.305170000000      12.652100000000       0.085116441078       0.115180806265      -0.152870507265
111 1       2.131530000000       6.327230000000      14.635620000000       0.075682143585      -0.382693268810      -0.106453465426
112 1       6.161960000000       2.013580000000      10.505990000000      -0.018522212935       0.194914320683       0.237590928020
113 1       4.149000000000       4.282090000000      10.592640000000      -0.245075299930      -0.140426533149       0.084784110171
114 1       4.325840000000       4.187860000000      14.929630000000      -0.064963227439       0.217656579707       0.027561262248
115 1       0.033320000000       2.051620000000      16.828100000000      -0.024907437689       0.242834479883       0.070087523044
116 1       8.430110000000       6.372700000000       8.495940000000       0.296722316743      -0.227784857202       0.156069941291
117 1       0.047630000000       8.340170000000      14.821940000000       0.262709349220       0.111517757414      -0.077849397925
118 1       8.278100000000       8.336320000000      10.689920000000       0.158723025122       0.119135755733       0.040410209804
119 1       4.307940000000       6.437220000000      12.853970000000      -0.107991551981      -0.026566240374      -0.038263959581
120 1       4.200070000000       1.967910000000      12.752650000000      -0.252976051994       0.007358561909      -0.030928969652
121 1       6.443850000000       1.980950000000      14.847760000000       0.217112699289       0.364212213509       0.092114535355
122 1       2.016180000000       6.268630000000      10.519420000000      -0.057429684187      -0.238147524722       0.017345907814
123 1       2.048480000000       4.039490000000      12.559810000000       0.108559215829      -0.001849149592       0.014235615971
124 1       6.248430000000       4.250850000000      12.827890000000      -0.132239911819      -0.209233428517      -0.221673287889
125 1       6.182310000000       0.110410000000       8.606730000000      -0.125691500679       0.179183554736       0.145413195536
126 1       2.257670000000       0.066510000000      16.834770000000      -0.227935700384      -0.092035835837       0.125119998488
127 1       6.360930000000       6.383220000000      10.633920000000       0.128327714521      -0.087225232363       0.254614092381
128 1       2.122380000000       1.903000000000      14.736770000000      -0.270307158699       0.040519825399      -0.302947949536
129 1       2.300970000000       2.010440000000      19.171300000000      -0.066636107222      -0.073125444636       0.014650772759
130 1       6.403600000000       6.382620000000      23.188190000000      -0.214057839119      -0.041633943416       0.050849376962
131 1       4.370280000000       0.039810000000      23.236000000000      -0.006869416167      -0.290947933122       0.037016480780
132 1       4.420360000000       0.066030000000      18.982800000000       0.015483257844      -0.191432281396      -0.051798006369
133 1       0.116570000000       6.416810000000      21.202440000000       0.018098612294       0.152393665317      -0.238478841338
134 1       0.117290000000       2.099140000000      21.228490000000       0.233217446268       0.041019487832       0.131514659945
135 1       6.464140000000       4.200940000000      25.303780000000      -0.100968548162      -0.056857020797      -0.063894085912
136 1       2.128580000000       4.083410000000      16.917090000000      -0.157640526345       0.063927955984       0.011603057681
137 1       0.043630000000       4.303480000000      18.907010000000       0.175977820873       0.153024296705      -0.080082443679
138 1       8.427820000000       4.186990000000      23.391260000000       0.119301176770       0.103958523655       0.000658905314
139 1       4.390820000000       1.966980000000      17.010610000000       0.060049340601       0.182355865643       0.055602477267
140 1       4.192400000000       6.332270000000      25.298300000000      -0.152292745298       0.135234214913      -0.095725604404
141 1       2.112880000000       0.145260000000      21.149010000000       0.020148546685      -0.044165713513       0.032218393905
142 1       6.550840000000       0.021070000000      21.093620000000       0.037315949816      -0.321949290368      -0.194186035891
143 1       2.287490000000       6.355040000000      23.417570000000      -0.041003148646       0.119134014083      -0.073817492288
144 1       6.366280000000       2.019480000000      18.965210000000      -0.084138012798       0.042151626038      -0.090106356928
145 1       4.231610000000       4.158010000000      19.164880000000      -0.050192707136       0.181106082662      -0.326788732203
146 1       4.529240000000       4.522500000000      22.997860000000       0.016884891478      -0.161588304690      -0.042907173808
147 1       8.402810000000       2.267710000000      25.352920000000       0.115490376783       0.027050953904      -0.128436047835
148 1       0.005870000000       6.194970000000      17.027170000000       0.287360364669      -0.080034652469       0.016208551148
149 1       8.373660000000       0.166270000000      23.183130000000       0.023193315974      -0.181001667974       0.122189340394
150 1       0.059190000000       8.432930000000      19.128200000000      -0.002111879506      -0.318918945634      -0.086252872200
151 1       4.397860000000       6.422250000000      21.183300000000       0.077127182978      -0.279266983238       0.187829198851
152 1       4.292780000000       2.223980000000      21.064040000000      -0.282659353788       0.236344415138      -0.113121390179
153 1       6.477250000000       2.269120000000      23.334410000000      -0.016758335824       0.067043983631       0.134235351527
154 1       2.173840000000       6.383170000000      19.084710000000      -0.095535945043       0.106427831456       0.045209426095
155 1       2.249470000000       4.127720000000      21.274880000000      -0.065912809289       0.040407716207      -0.052872322542
156 1       6.454350000000       4.346640000000      21.182210000000      -0.294041754808       0.116813673630       0.105378781346
157 1       6.311980000000       0.004780000000      17.011270000000       0.089979002742       0.037114866636       0.098730297479
158 1       2.095730000000       0.017490000000       0.015070000000      -0.074256870518      -0.152616746061       0.014472562977
159 1       6.694180000000       6.557710000000      19.276640000000      -0.170509440547       0.011329579949      -0.043433832513
160 1       2.074720000000       2.065920000000      23.187380000000       0.151033224870      -0.067026925410       0.163484861335
