ITEM: TIMESTEP
0
ITEM: NUMBER OF ATOMS
30
ITEM: BOX BOUNDS xy xz yz pp pp pp
-2.5217303599999998e+00 5.0434607400000004e+00 -2.5217303599999998e+00
0.0000000000000000e+00 4.3677655399999997e+00 0.0000000000000000e+00
0.0000000000000000e+00 1.3577357367999999e+01 0.0000000000000000e+00
ITEM: ATOMS id type x y z fx fy fz
1 2       0.000000000000       0.000000000000       1.957030000000      -0.000001451249      -0.000030762830      -0.012055738268
2 2       0.000000006667       2.911840000000       0.305870000000      -0.000006122829       0.000045053169       0.012009320046
3 2       2.521730003333       1.455920000000       2.568750000000      -0.000000320220       0.000036677898       0.012068486278
4 2       0.000000006667       2.911840000000       4.219930000000      -0.000005449860       0.000060673525      -0.012055082715
5 2       2.521730003333       1.455920000000       6.482810000000       0.000000078968       0.000021454800      -0.011987026816
6 2       0.000000000000       0.000000000000       4.831650000000       0.000004503849      -0.000006527939       0.012070870126
7 2       0.000000006667       2.911840000000       7.094550000000      -0.000003577790       0.000044873473       0.011999105522
8 2       0.000000000000       0.000000000000       8.745710000000      -0.000008414849      -0.000030520285      -0.012056347771
9 2       0.000000006667       2.911840000000      11.008610000000       0.000000911873       0.000061038941      -0.012061494966
10 2       2.521730003333       1.455920000000       9.357430000000       0.000007381176       0.000036950264       0.012061736931
11 2       0.000000000000       0.000000000000      11.620330000000      -0.000007175397      -0.000006218591       0.012069903715
12 2       2.521730003333       1.455920000000      13.271490000000       0.000011624252       0.000020967795      -0.011997518762
13 1       4.279360003030       1.323460000000       3.394340000000       0.011985612129      -0.020734797567      -0.000006525103
14 1       1.528200000000       0.000000000000       3.394340000000      -0.023951009282      -0.000008902806       0.000023213029
15 1       1.757630006970       3.044310000000       3.394340000000       0.011980795812       0.020672189499      -0.000012476179
16 1       3.285830000303       0.132460000000       1.131440000000      -0.011944129680       0.020798384199       0.000107569710
17 1       3.285830006363       2.779380000000       1.131440000000      -0.012044090681      -0.020737451692       0.000129882634
18 1       0.993530003333       1.455920000000       1.131440000000       0.023989611737      -0.000042468559       0.000140059131
19 1       1.757630006363       2.779380000000       7.920120000000       0.012046580199      -0.020736934842       0.000121169704
20 1       4.049930003333       1.455920000000       7.920120000000      -0.023985158199      -0.000039714203       0.000127670974
21 1       1.757630000303       0.132460000000       7.920120000000       0.011951036359       0.020795543250       0.000092998911
22 1       0.764100003637       1.588390000000       5.657240000000      -0.012036979873       0.020677116642      -0.000130063830
23 1       0.764100009697       4.235310000000       5.657240000000      -0.011953809130      -0.020866513712      -0.000118798016
24 1      -1.528199993333       2.911840000000       5.657240000000       0.023983718913       0.000115475106      -0.000125413424
25 1      -0.764099990303       4.235310000000      12.445920000000       0.011948939264      -0.020869553804      -0.000130781218
26 1       1.528200006667       2.911840000000      12.445920000000      -0.023986664171       0.000119157166      -0.000138673517
27 1      -0.764099996363       1.588390000000      12.445920000000       0.012035894176       0.020677274876      -0.000139552168
28 1      -1.757629993030       3.044310000000      10.183020000000      -0.011986773116       0.020671958457      -0.000016302080
29 1       0.764100003030       1.323460000000      10.183020000000      -0.011981122521      -0.020735415293      -0.000010346826
30 1       3.515260000000       0.000000000000      10.183020000000       0.023955560140      -0.000009006938       0.000020154949
