ITEM: TIMESTEP
0
ITEM: NUMBER OF ATOMS
30
ITEM: BOX BOUNDS xy xz yz pp pp pp
-2.5217303599999998e+00 5.0434607400000004e+00 -2.5217303599999998e+00
0.0000000000000000e+00 4.3677655399999997e+00 0.0000000000000000e+00
0.0000000000000000e+00 1.3577357367999999e+01 0.0000000000000000e+00
ITEM: ATOMS id type v_vir_xx v_vir_yy v_vir_zz v_vir_xy v_vir_xz v_vir_yz
1 2      -3.971393075873      -3.971422779957      -3.044481353056      -0.000018996035      -0.000004016417       0.000016883373
2 2      -3.971472714461      -3.971477858424      -3.044770496543      -0.000019507800      -0.000005419620       0.000001561886
3 2      -3.971374799661      -3.971328991277      -3.044505693479      -0.000009648943      -0.000003694072       0.000013665185
4 2      -3.971339021831      -3.971381604166      -3.044484384990       0.000022373934       0.000001117356      -0.000006757503
5 2      -3.971496206137      -3.971480258913      -3.044724411918       0.000020045427       0.000003667379      -0.000006124091
6 2      -3.971362180269      -3.971386413942      -3.044450731741       0.000008944706       0.000010706387      -0.000005219476
7 2      -3.971459690309      -3.971463346007      -3.044713215467       0.000024405273       0.000001790714       0.000001112199
8 2      -3.971384067216      -3.971414021716      -3.044465390096       0.000012716787       0.000006288457       0.000016574490
9 2      -3.971340993799      -3.971385428834      -3.044510256007      -0.000019875759       0.000000226722      -0.000007391975
10 2      -3.971369528355      -3.971325454448      -3.044479189289       0.000008179415       0.000005985936       0.000014390968
11 2      -3.971366710897      -3.971392158129      -3.044466172217      -0.000013313264      -0.000010444308      -0.000005032404
12 2      -3.971508051495      -3.971495416195      -3.044781322006      -0.000018503970      -0.000007922912      -0.000006098685
13 1       1.914928525476       2.762116771540       1.787126693251      -0.733691416541       0.519044202728       0.299662893046
14 1       3.185699525968       1.491342250420       1.787133916507      -0.000006011414       0.000003038308      -0.599347670064
15 1       1.914931729508       2.762159755352       1.787136733957       0.733695696973      -0.519054492516       0.299683666174
16 1       1.914930738905       2.762085800319       1.787128300474      -0.733703200585       0.519049973275       0.299663323019
17 1       1.914888802877       2.762140368939       1.787129314205       0.733685477466      -0.519033772924       0.299681200512
18 1       3.185701447654       1.491301266432       1.787128521724       0.000029289213      -0.000009007731      -0.599333685970
19 1       1.914884245838       2.762138468345       1.787126082696      -0.733685592508       0.519032706834       0.299682883840
20 1       3.185704705456       1.491300226288       1.787124093159      -0.000027591547       0.000009744629      -0.599336238720
21 1       1.914924927656       2.762086614358       1.787124539887       0.733702304254      -0.519049367553       0.299663760321
22 1       1.914871483891       2.762158748142       1.787142594220      -0.733700605657       0.519036830720       0.299691348841
23 1       1.914937161645       2.762050255284       1.787106045875       0.733701993225      -0.519043761143       0.299643311216
24 1       3.185706918395       1.491313018931       1.787122771296      -0.000063150545       0.000016866809      -0.599340919808
25 1       1.914940119771       2.762049371649       1.787109622801      -0.733702524786       0.519042830874       0.299642931769
26 1       3.185704452431       1.491315321524       1.787126985473       0.000065763158      -0.000016852907      -0.599339326317
27 1       1.914875405170       2.762161138871       1.787145391701       0.733699100300      -0.519037998985       0.299690099928
28 1       1.914929310139       2.762159552025       1.787136108917      -0.733692924394       0.519055094917       0.299683546543
29 1       1.914925281719       2.762116427126       1.787127424932       0.733693736044      -0.519043544133       0.299662661986
30 1       3.185697898473       1.491341742914       1.787132433294       0.000004033956      -0.000002902326      -0.599346993348
