30
Config_type=bulk_alpha_phase Weight=1.0 Lattice="5.043460740 0.000000000 0.000000000 -2.521730370 4.367765540 0.000000000 0.000000000 0.000000000 13.577357368" Energy=-255.11042360 Virial="4.75059 0.00005 0.00003 0.00005 4.75077 -0.00000 0.00003 -0.00000 4.22777" pbc="T T T" Properties=species:S:1:pos:R:3:forces:R:3
Ga	      0.00000      0.00000      1.95703        -0.000002     -0.000035     -0.016830
Ga	     -0.00000      2.91184      0.30587        -0.000008      0.000050      0.016722
Ga	      2.52173      1.45592      2.56875        -0.000003      0.000028      0.016838
Ga	     -0.00000      2.91184      4.21993        -0.000009      0.000069     -0.016837
Ga	      2.52173      1.45592      6.48281        -0.000006      0.000017     -0.016705
Ga	      0.00000      0.00000      4.83165         0.000010     -0.000010      0.016826
Ga	     -0.00000      2.91184      7.09455        -0.000008      0.000047      0.016737
Ga	      0.00000      0.00000      8.74571        -0.000009     -0.000035     -0.016819
Ga	     -0.00000      2.91184     11.00861         0.000004      0.000067     -0.016824
Ga	      2.52173      1.45592      9.35743         0.000004      0.000035      0.016819
Ga	      0.00000      0.00000     11.62033        -0.000015     -0.000013      0.016842
Ga	      2.52173      1.45592     13.27149         0.000015      0.000017     -0.016718
O	      4.27936      1.32346      3.39434        -0.005514      0.009551     -0.000012
O	      1.52820      0.00000      3.39434         0.011031     -0.000025      0.000020
O	      1.75763      3.04431      3.39434        -0.005512     -0.009635     -0.000014
O	      3.28583      0.13246      1.13144         0.005545     -0.009599      0.000081
O	      3.28583      2.77938      1.13144         0.005528      0.009601      0.000101
O	      0.99353      1.45592      1.13144        -0.011077     -0.000012      0.000110
O	      1.75763      2.77938      7.92012        -0.005440      0.009533      0.000126
O	      4.04993      1.45592      7.92012         0.010977     -0.000046      0.000132
O	      1.75763      0.13246      7.92012        -0.005526     -0.009496      0.000100
O	      0.76410      1.58839      5.65724         0.005507     -0.009674     -0.000103
O	      0.76410      4.23531      5.65724         0.005535      0.009471     -0.000093
O	     -1.52820      2.91184      5.65724        -0.011052      0.000075     -0.000101
O	     -0.76410      4.23531     12.44592        -0.005557      0.009402     -0.000108
O	      1.52820      2.91184     12.44592         0.010999      0.000127     -0.000115
O	     -0.76410      1.58839     12.44592        -0.005403     -0.009397     -0.000088
O	     -1.75763      3.04431     10.18302         0.005475     -0.009707     -0.000041
O	      0.76410      1.32346     10.18302         0.005581      0.009563     -0.000037
O	      3.51526      0.00000     10.18302        -0.011069      0.000034     -0.000008
