ITEM: TIMESTEP
0
ITEM: NUMBER OF ATOMS
40
ITEM: BOX BOUNDS pp pp pp
0.0000000000000000e+00 8.8901525059999997e+00
0.0000000000000000e+00 5.1770148819999999e+00
0.0000000000000000e+00 9.5127244070000003e+00
ITEM: ATOMS id type v_vir_xx v_vir_yy v_vir_zz v_vir_xy v_vir_xz v_vir_yz
1 2      -0.978306088947      -1.288176499375      -1.584145315507       0.626765611116       0.994108678796      -0.987717621559
2 2      -0.978307912600      -1.288164540085      -1.584157404710      -0.626751027802      -0.994160621666      -0.987678292017
3 2      -2.569052338120      -3.060575006825      -2.425622876891      -0.457603795242      -0.310272950123       0.691824948379
4 2      -2.569098829164      -3.060602473216      -2.425599704372       0.457590368672       0.310291237224       0.691815747964
5 2      -1.414297408442      -1.216088698538      -1.106300693372      -0.358011794923       0.674823124691      -0.115516553735
6 2      -1.611461189799      -1.911652220779      -3.334644870455       0.433037681085      -0.561986124632      -1.171228239880
7 2      -1.611450914804      -1.911639928780      -3.334676605465      -0.433023524166       0.561965056985      -1.171249677584
8 2      -1.414302826423      -1.216115316412      -1.106287628873       0.358000008576      -0.674805771032      -0.115552554713
9 2      -2.571001446404      -3.059303226781      -2.424124543837       0.455293579597      -0.310880640403      -0.692298427265
10 2      -2.571100401184      -3.059281027384      -2.424154560349      -0.455301277936       0.310895491639      -0.692295582482
11 2      -0.988763775138      -1.297054948832      -1.591191754638      -0.627920234890       0.997995065865       0.980612420926
12 2      -0.988773383439      -1.297026783465      -1.591163176452       0.627947324796      -0.998039496041       0.980619927330
13 2      -1.404875788964      -1.215738243908      -1.104623911380      -0.358640566660      -0.672752025349       0.110894715012
14 2      -1.605035436959      -1.914809830429      -3.339699731340      -0.432018524081      -0.562484981944       1.172180294169
15 2      -1.604976025590      -1.914817022495      -3.339672868499       0.432001522094       0.562450391081       1.172214619160
16 2      -1.404864515693      -1.215622896560      -1.104581307889       0.358672357604       0.672730157317       0.110884899921
17 1       0.877575307687       1.565184154357       1.112957390399       0.400360033648       0.934412723951      -0.824864763505
18 1       0.619203108897       1.057042929045       1.302482799823      -0.396255028865      -0.988655077251      -0.480561666245
19 1       1.701469117486       1.243329419296       1.310910095875      -0.440553026191      -0.558246313285      -0.836518885293
20 1       2.528800352341       2.700753295133       3.122992122016      -0.178208946448      -0.587360705957      -0.948683190233
21 1       0.877571445134       1.565163232103       1.112992639648      -0.400403008669      -0.934405554683      -0.824860115504
22 1       2.228931769657       2.045323570501       2.245401449962      -0.094182000314      -0.129104643148      -0.335920601484
23 1       1.701452216242       1.243378397928       1.310932267625       0.440543242763       0.558241829429      -0.836546039238
24 1       2.528765257476       2.700806306037       3.123011243931       0.178215305857       0.587359558232      -0.948650687871
25 1       2.232917059696       2.044619407660       2.243315096611      -0.094789353474       0.128954550701       0.336634410215
26 1       0.875433477147       1.552965685676       1.108816901798      -0.400521702174       0.936159312312       0.822194340570
27 1       2.524460490393       2.698809953370       3.120016691528      -0.176258591652       0.589887859957       0.951274688170
28 1       1.698448658201       1.239531165360       1.306510606288      -0.439997235432       0.557525735692       0.834186884986
29 1       0.620406935180       1.060378712922       1.303388037656      -0.402238922790       0.986898776077       0.479001002417
30 1       0.875422287156       1.552906873101       1.108824776282       0.400476240928      -0.936154639684       0.822191346257
31 1       1.766785594362       2.604353513306       2.437768353113      -0.041688987077       0.161543373688      -0.042807465608
32 1       1.768478521708       2.606959042747       2.437776613906      -0.043001177935      -0.161447960379       0.043443012277
33 1       0.620442486998       1.060380446003       1.303373456263       0.402277518502      -0.986950981491       0.478986843656
34 1       2.228988526849       2.045314664401       2.245409108886       0.094218277547       0.129085644083      -0.335907191316
35 1       1.766831383758       2.604359623177       2.437813653430       0.041697977098      -0.161534897374      -0.042806757496
36 1       1.768487805526       2.606975975703       2.437827130121       0.042953753314       0.161476853456       0.043448905846
37 1       2.232919912391       2.044589981380       2.243317113107       0.094768289242      -0.128950964918       0.336616151035
38 1       0.619189008332       1.057099810659       1.302476650754       0.396280965012       0.988646739336      -0.480549749646
39 1       2.524475269934       2.698784567743       3.120042164436       0.176236717937      -0.589853035872       0.951271595854
40 1       1.698451482647       1.239591794205       1.306507608881       0.439992777660      -0.557504984536       0.834196552945
