ITEM: TIMESTEP
0
ITEM: NUMBER OF ATOMS
80
ITEM: BOX BOUNDS pp pp pp
0.0000000000000000e+00 9.3544788879999992e+00
0.0000000000000000e+00 9.3544788879999992e+00
0.0000000000000000e+00 9.3544788879999992e+00
ITEM: ATOMS id type x y z fx fy fz
1 2       7.015860000000       2.338620000000       2.338620000000       0.000002913689       0.000000658135      -0.000007396352
2 2       7.015860000000       4.343890000000       4.677240000000      -0.000013966038       0.023578547476      -0.000026859656
3 2       0.000000000000       7.015860000000       0.333350000000       0.000022267985      -0.000005140631      -0.023558868327
4 2       0.000000000000       2.338620000000       4.343890000000       0.000027586195      -0.000020311982       0.023569641988
5 2       0.333350000000       0.000000000000       7.015860000000      -0.023558868327       0.000022267985      -0.000005140631
6 2       0.333350000000       4.677240000000       2.338620000000      -0.023572705024      -0.000021541325      -0.000011486538
7 2       2.338620000000       4.343890000000       0.000000000000      -0.000020311982       0.023569641988       0.000027586195
8 2       2.338620000000       7.015860000000       2.338620000000      -0.000007396352       0.000002913689       0.000000658135
9 2       2.338620000000       2.338620000000       2.338620000000      -0.000018287742      -0.000018287742      -0.000018287742
10 2       2.338620000000       2.338620000000       7.015860000000       0.000000658135      -0.000007396352       0.000002913689
11 2       2.338620000000       0.333350000000       4.677240000000      -0.000011486538      -0.023572705024      -0.000021541325
12 2       4.343890000000       0.000000000000       2.338620000000       0.023569641988       0.000027586195      -0.000020311982
13 2       4.343890000000       4.677240000000       7.015860000000       0.023578547476      -0.000026859656      -0.000013966038
14 2       4.677240000000       2.338620000000       0.333350000000      -0.000021541325      -0.000011486538      -0.023572705024
15 2       4.677240000000       7.015860000000       4.343890000000      -0.000026859656      -0.000013966038       0.023578547476
16 2       7.015860000000       0.333350000000       0.000000000000      -0.000005140631      -0.023558868327       0.000022267985
17 2       2.338620000000       7.015860000000       7.015860000000      -0.000026001557      -0.000026481515      -0.000034195265
18 2       2.338620000000       9.021120000000       0.000000000000      -0.000005619673       0.023755995620       0.000048475914
19 2       4.677240000000       2.338620000000       5.010590000000      -0.000000651606      -0.000014445069      -0.023604667280
20 2       4.677240000000       7.015860000000       9.021120000000       0.000004666585      -0.000011007505       0.023764901389
21 2       5.010590000000       4.677240000000       2.338620000000      -0.023604667280      -0.000000651606      -0.000014445069
22 2       5.010590000000       0.000000000000       7.015860000000      -0.023590830613       0.000053794340      -0.000019832942
23 2       7.015860000000       9.021120000000       4.677240000000      -0.000011007505       0.023764901389       0.000004666585
24 2       7.015860000000       2.338620000000       7.015860000000      -0.000034195265      -0.000026001557      -0.000026481515
25 2       7.015860000000       7.015860000000       7.015860000000       0.000010968204       0.000010968204       0.000010968204
26 2       7.015860000000       7.015860000000       2.338620000000      -0.000026481515      -0.000034195265      -0.000026001557
27 2       7.015860000000       5.010590000000       0.000000000000      -0.000019832942      -0.023590830613       0.000053794340
28 2       9.021120000000       4.677240000000       7.015860000000       0.023764901389       0.000004666585      -0.000011007505
29 2       9.021120000000       0.000000000000       2.338620000000       0.023755995620       0.000048475914      -0.000005619673
30 2       0.000000000000       7.015860000000       5.010590000000       0.000053794340      -0.000019832942      -0.023590830613
31 2       0.000000000000       2.338620000000       9.021120000000       0.000048475914      -0.000005619673       0.023755995620
32 2       2.338620000000       5.010590000000       4.677240000000      -0.000014445069      -0.023604667280      -0.000000651606
33 1       8.274410000000       5.709670000000       1.476160000000      -0.109435558659       0.042310633285       0.052535668043
34 1       8.274410000000       3.644810000000       3.201080000000      -0.109442322916      -0.042294536207      -0.052523273142
35 1       8.322050000000       1.476160000000       1.080070000000      -0.042294640030       0.052561978532       0.109379180119
36 1       8.322050000000       3.201080000000       5.757310000000      -0.042318985387      -0.052528200114       0.109433856727
37 1       1.032430000000       3.201080000000       1.080070000000       0.042266821145      -0.052549861490       0.109385699253
38 1       1.032430000000       1.476160000000       5.757310000000       0.042293116562       0.052539779068       0.109427710494
39 1       1.080070000000       8.322050000000       1.476160000000       0.109379180119      -0.042294640030       0.052561978532
40 1       1.080070000000       1.032430000000       3.201080000000       0.109385699253       0.042266821145      -0.052549861490
41 1       1.476160000000       5.757310000000       1.032430000000       0.052539779068       0.109427710494       0.042293116562
42 1       1.476160000000       3.597170000000       3.644810000000       0.052541906567      -0.109412901622      -0.042288118242
43 1       1.476160000000       1.080070000000       8.322050000000       0.052561978532       0.109379180119      -0.042294640030
44 1       1.476160000000       8.274410000000       5.709670000000       0.052535668043      -0.109435558659       0.042310633285
45 1       3.201080000000       3.597170000000       5.709670000000      -0.052530605493      -0.109418802734       0.042302265311
46 1       3.201080000000       1.080070000000       1.032430000000      -0.052549861490       0.109385699253       0.042266821145
47 1       3.201080000000       8.274410000000       3.644810000000      -0.052523273142      -0.109442322916      -0.042294536207
48 1       3.201080000000       5.757310000000       8.322050000000      -0.052528200114       0.109433856727      -0.042318985387
49 1       3.597170000000       3.644810000000       1.476160000000      -0.109412901622      -0.042288118242       0.052541906567
50 1       3.597170000000       5.709670000000       3.201080000000      -0.109418802734       0.042302265311      -0.052530605493
51 1       3.644810000000       1.476160000000       3.597170000000      -0.042288118242       0.052541906567      -0.109412901622
52 1       3.644810000000       3.201080000000       8.274410000000      -0.042294536207      -0.052523273142      -0.109442322916
53 1       5.709670000000       1.476160000000       8.274410000000       0.042310633285       0.052535668043      -0.109435558659
54 1       5.709670000000       3.201080000000       3.597170000000       0.042302265311      -0.052530605493      -0.109418802734
55 1       5.757310000000       8.322050000000       3.201080000000       0.109433856727      -0.042318985387      -0.052528200114
56 1       5.757310000000       1.032430000000       1.476160000000       0.109427710494       0.042293116562       0.052539779068
57 1       3.597170000000       1.032430000000       6.153400000000      -0.109420801135       0.042293706302       0.052540741164
58 1       3.597170000000       8.322050000000       7.878320000000      -0.109413381243      -0.042327414604      -0.052555696274
59 1       3.644810000000       6.153400000000       5.757310000000      -0.042287197649       0.052542886345       0.109429454414
60 1       3.644810000000       7.878320000000       1.080070000000      -0.042268741849      -0.052579502907       0.109373876987
61 1       5.709670000000       7.878320000000       5.757310000000       0.042309184302      -0.052558119383       0.109421789396
62 1       5.709670000000       6.153400000000       1.080070000000       0.042276999335       0.052565363654       0.109380678859
63 1       5.757310000000       3.644810000000       6.153400000000       0.109429454414      -0.042287197649       0.052542886345
64 1       5.757310000000       5.709670000000       7.878320000000       0.109421789396       0.042309184302      -0.052558119383
65 1       6.153400000000       1.080070000000       5.709670000000       0.052565363654       0.109380678859       0.042276999335
66 1       6.153400000000       8.274410000000       8.322050000000       0.052534224766      -0.109443703257      -0.042327943099
67 1       6.153400000000       5.757310000000       3.644810000000       0.052542886345       0.109429454414      -0.042287197649
68 1       6.153400000000       3.597170000000       1.032430000000       0.052540741164      -0.109420801135       0.042293706302
69 1       7.878320000000       8.274410000000       1.032430000000      -0.052548641778      -0.109436656240       0.042307963950
70 1       7.878320000000       5.757310000000       5.709670000000      -0.052558119383       0.109421789396       0.042309184302
71 1       7.878320000000       3.597170000000       8.322050000000      -0.052555696274      -0.109413381243      -0.042327414604
72 1       7.878320000000       1.080070000000       3.644810000000      -0.052579502907       0.109373876987      -0.042268741849
73 1       8.274410000000       8.322050000000       6.153400000000      -0.109443703257      -0.042327943099       0.052534224766
74 1       8.274410000000       1.032430000000       7.878320000000      -0.109436656240       0.042307963950      -0.052548641778
75 1       8.322050000000       6.153400000000       8.274410000000      -0.042327943099       0.052534224766      -0.109443703257
76 1       8.322050000000       7.878320000000       3.597170000000      -0.042327414604      -0.052555696274      -0.109413381243
77 1       1.032430000000       6.153400000000       3.597170000000       0.042293706302       0.052540741164      -0.109420801135
78 1       1.032430000000       7.878320000000       8.274410000000       0.042307963950      -0.052548641778      -0.109436656240
79 1       1.080070000000       3.644810000000       7.878320000000       0.109373876987      -0.042268741849      -0.052579502907
80 1       1.080070000000       5.709670000000       6.153400000000       0.109380678859       0.042276999335       0.052565363654
