ITEM: TIMESTEP
0
ITEM: NUMBER OF ATOMS
160
ITEM: BOX BOUNDS pp pp pp
0.0000000000000000e+00 8.4044863139999997e+00
0.0000000000000000e+00 8.4044863139999997e+00
0.0000000000000000e+00 2.5213458942999999e+01
ITEM: ATOMS id type v_vir_xx v_vir_yy v_vir_zz v_vir_xy v_vir_xz v_vir_yz
1 2      -3.031618632424      -0.893481151519      -0.960837229668       0.019371459254      -0.207711836820      -0.137650891214
2 2      -3.217684524717      -2.333308044127      -2.879606130897      -0.289312803406       0.425702319992       0.152593728542
3 2      -2.166030295034      -3.098061524964      -2.640842624500       0.370134045716       0.491714659657      -0.002678663798
4 2      -0.684727840576      -2.741379338625      -2.749656539205       0.254312441987      -0.253371235594       0.528800169384
5 2      -2.806036038865      -0.755416177995      -2.594208702260       0.092874020753      -0.093190268359       0.084096838002
6 2      -2.981426084024      -0.985352218168      -1.549024782859       0.262673620039      -0.059282056824      -0.305963879476
7 2      -2.305693845983      -3.349096947686      -1.026247090453      -0.646107034181       0.059943520533      -0.070628453200
8 2      -0.536450395368      -3.686259626005      -2.716591846334       0.097250959205      -0.243913288385      -0.342734500601
9 2      -3.642312539489      -2.435890538443      -0.956421615783      -0.583486767989       0.074315233584      -0.316594426528
10 2      -2.294633909115      -3.149927346216      -2.685700985196       0.360250771802       0.137110085990      -0.286663133501
11 2      -3.787365945903      -0.906250719801      -2.917289682553      -0.014336183110       0.292733824513      -0.116069444414
12 2      -0.618957496710      -2.751963791164      -2.705359705037       0.025810998146       0.481295692076       0.458845961171
13 2      -1.170225855778      -3.003898433168      -1.768132267632      -0.332497042226       0.569043999639      -0.171896945056
14 2      -2.732955834994      -0.737556542773      -2.661736797213       0.115550649927      -0.085782278076       0.044081728001
15 2      -3.204421693012      -2.177926522150      -2.623209881617       0.404972408522       0.162498112178       0.424157569298
16 2      -0.230425553208      -3.524430080801      -2.959635450204      -0.131461657804      -0.279372546634      -0.078981830279
17 2      -3.169525615727      -2.499642930482      -1.074091847181       0.552207267206       0.005125785405       0.112001094189
18 2      -0.974587527681      -3.032845268492      -1.539131834166       0.122968651581      -0.242183589596      -0.304563181977
19 2      -2.329434042290      -3.329311561228      -1.045292853220      -0.642789853136       0.101186046848      -0.047905513576
20 2      -3.604256401786      -0.347164228033      -3.004943626064       0.203390796753       0.228781546630       0.525388751784
21 2      -1.905330303196      -2.003865604186       0.314381384172      -0.472051119991       0.120932126305       0.143265639541
22 2      -1.348815805686      -1.455900952390      -3.218699957440      -0.510077717013      -0.433171860290       0.302269763479
23 2      -2.984792761585      -0.114392217317       0.007798396110      -0.094010862430       0.291160934237       0.484810863018
24 2      -1.981129253986      -2.742960745856      -2.407263875275      -0.661324998274       1.162552017417       1.009374549197
25 2      -2.839716477170      -0.727272488902      -1.320205066490      -0.261161026150       0.284915187669       0.961191932007
26 2      -1.690276822010       0.460826691803      -1.501571055922       0.253015245327       0.155852719763      -0.600489122576
27 2      -1.496824520157       0.890410595412      -1.873538100765      -0.338670719266       0.212145120141       0.232537601485
28 2      -2.523651800310      -2.288672604963      -2.558419969324       0.692955582614       1.085669791493      -1.179860157735
29 2       0.341420931683      -1.534425270156      -1.380321326664       0.141800867602       0.430058967500      -0.415473582102
30 2      -0.048437389704      -2.922006404431       0.207025422911       0.653540580554       0.128814560400       0.468497390291
31 2      -1.207691905514      -1.509668099881      -3.234920920267       0.349956116823       0.761052307749       0.194080351723
32 2      -1.136818809026      -1.115569737289      -3.331863773108       0.391977669622      -0.328947804765       0.257666439186
33 2      -2.352323799780      -2.443996391464      -2.915128479021       0.613025733611      -0.033103397090       0.882436244071
34 2      -2.539635672868      -2.291644303312      -3.216189644655      -0.618693108759       0.031017751001       1.053831304711
35 2      -1.521119489976      -1.158675452111      -2.751487019476       0.303100729763       0.364778674262       0.784327231059
36 2      -2.715476717432      -1.111805342094      -1.370789731068       1.017440904481      -0.279092316878       0.202832949857
37 2      -1.710481921046      -2.019297420204       0.167075280791      -0.149077195638       0.673790063350       0.254692846427
38 2      -2.132479004967      -2.488335771211      -2.665846047106       0.502604528129      -0.433293686324       0.027377915275
39 2      -1.586522628572       0.747676607092      -1.819940816615       0.235444781597      -0.084969556980      -0.553495329212
40 2       0.568053054136      -1.802395594962      -1.969044176796      -0.228772606293      -0.292171536073      -0.036354262307
41 2      -2.524082544414      -2.286518859735      -1.819838341870       0.051527337455      -1.184502245789       1.188786655039
42 2      -1.277844146439      -2.562268876424      -0.419211889992       0.405018297091      -0.859998907916      -0.395015746066
43 2      -1.277432048736      -1.376501998752      -3.328560964300      -0.343404798881       0.755513414562      -0.026860119905
44 2      -2.251346345001      -2.700578735809      -2.850731962209       0.591356658378      -0.564520800441       0.107540495867
45 2      -2.589330166980      -2.228835918588      -2.864242314949       0.556788203750       0.177182983533      -0.606885452101
46 2      -2.488704667766      -2.351941381156      -2.499230725775      -0.404133640184       0.108456722916      -0.576261633358
47 2      -2.200260270592      -2.482499034380      -2.612031603146      -0.570680887296      -0.662717726115       0.030433237444
48 2      -1.221524981045      -2.649705461285      -0.733798745641      -0.347110120234      -0.934734375634       0.516508484165
49 2      -2.195371511633      -2.516306312334      -2.782578094830      -0.640255003047      -0.712735968294       0.144618770073
50 2       0.346613838431      -1.702058138636      -1.777477535252      -0.227560659840       0.533528237603       0.025866843396
51 2       0.568616647312      -1.659445717819      -1.777757149756       0.186700126031      -0.333901582034      -0.093842782302
52 2      -2.422828261664      -1.140428451312      -1.079303920730       0.140403598584       0.369662546990      -0.644772520917
53 2      -1.416979701222      -2.519861658137      -1.045859650327      -0.790409579439       0.142143901583      -0.491421059306
54 2      -2.423531602808      -1.146412506589      -1.027435596375       0.173788160643       0.419986412982      -0.627725213900
55 2      -1.230360309148      -1.079345741025      -2.656497512114      -0.266068912152       0.098349494536      -0.360709308208
56 2      -2.375278525365      -2.357700791038      -1.739038559037      -0.084005692484      -1.123164856014      -1.314714782334
57 2      -0.685430924346      -2.822963903017      -1.262582425285      -0.287678790543       1.017309454618       0.130878123618
58 2      -1.586808226918      -1.200311232120      -3.259076811789       0.412503959749       0.331569363574       0.702415517074
59 2      -1.179446789403      -1.098891041953      -2.728325158474      -0.310082812946       0.237736031099      -0.303153268702
60 2      -1.470622923515       0.799815586836      -1.890897761378      -0.325709885205       0.332551352537       0.128007179320
61 2       0.339699231889      -1.394141716378      -1.315696121995       0.000001860408       0.085538736833       1.061977591909
62 2      -1.213339613002       0.120012795509      -1.233482480078       0.017572082307       1.060614622046       0.178696037794
63 2       0.149905991201      -1.231268352321      -1.143824288983       0.090021213194       0.060585141015      -1.167473494426
64 2      -1.275354220816       0.278264024589      -1.245116669418       0.025754982633       1.096072084101       0.016194613688
65 1       2.487543286511       2.038860207336       1.849214336434       0.371970428638       0.129009412248       0.094670857140
66 1       1.998869617368       2.045250153016       2.493369272518       0.367323270062       0.284992508400       0.281685209342
67 1       0.058565620983       1.397698004285       2.073303060782      -0.302544373932      -0.226664999380      -0.577422558745
68 1       1.061796646602       1.383252016619      -0.294869578075       0.365037455983      -0.046534572985       0.027923168461
69 1       1.689860849868       0.381774442904       1.605779225120      -0.065952920573       0.385081397979      -0.115847041619
70 1       1.593782233628       0.277113759985       1.414827684975      -0.133333222072       0.394414886638      -0.232225781536
71 1       1.945603807779       2.003987703146       1.415988410049      -0.474234769195      -0.234440476008       0.317946837765
72 1       0.904250391034       1.279938708774       0.906640949188      -0.094451887434       0.194329476116       0.000806560740
73 1       2.096762526942       1.946353507955       1.566042258013       0.420182610220      -0.526507640213      -0.345096075865
74 1       0.698559446751       1.320015111192       1.064086704301       0.234085341149       0.228397093701      -0.035539897376
75 1       1.707100961369       0.410428977481       1.610955585343      -0.064005017672       0.502271737975      -0.087732181757
76 1       2.049745833390       1.794571830421       1.731119487353      -0.622827456860       0.615531997638      -0.737282924934
77 1       0.861116549514       1.585228121263       0.488970206695      -0.127371910489      -0.264377091227       0.045972592097
78 1      -0.269005010776       1.494109083507       1.581651675639       0.089700115129      -0.241167556057       0.426920776856
79 1       1.671750639782       0.441350330380       1.691339676465       0.081472845858       0.441519530689       0.014682738854
80 1       2.084744031510       1.937905030292       2.106916296048       0.661485064444       0.693952244571       0.738639435782
81 1       2.114559422372       1.966021003110       1.553239082103       0.424427227664      -0.537984528691      -0.332761410542
82 1       2.197649187569       1.994349329644       1.707710431352       0.260987753438      -0.372655346176      -0.276655606180
83 1       2.411284818766       2.075064482455       1.935650170860      -0.377941365197       0.143519020391      -0.368325327574
84 1       2.018133264191       1.847027285858       2.761648714300      -0.097098206182       0.342188293005      -0.530034479637
85 1       0.664985746018       1.295084371492       0.727562409335       0.038699358543      -0.428081371559      -0.000798556918
86 1       1.167438874859       1.391608307252      -0.191085599051       0.379349413338      -0.028470605856       0.011390816933
87 1       2.215825861818       2.283189384051       2.295467052838      -0.367030353980       0.346622258886      -0.232222296574
88 1       2.009475274699       1.890334116322       2.769409219838      -0.097152910201       0.357623786685      -0.645420853281
89 1       1.686686220692       2.154569004845       2.560861697435       0.051867932910       0.407981633437       0.626284163393
90 1       2.532354717510       2.029511207319       1.855518714395       0.371416868124       0.126121653191       0.102286339420
91 1       0.764678438284       1.210557819897       0.926747285210      -0.128120882269       0.208552682526      -0.009730631785
92 1       1.876791725645       2.000102231348       2.181011048365      -0.213690167692      -0.409495836635       0.442695268889
93 1      -0.384104903003       1.459993305046       1.560452363761       0.129369432771      -0.129393722975       0.373586614751
94 1       1.331028629849       1.437317844136       0.290860150059      -0.337385910427      -0.338571087074      -0.161637502898
95 1       2.062542448596       1.940353506078       2.039333378287       0.662520079107       0.700508692628       0.763861658782
96 1       1.734458687610       0.665138480805       1.356905403109       0.125225422289       0.137727956846       0.016923022731
97 1       0.664330950489       1.644285751847       1.277652237443       0.159766361426       0.221114566366       0.119468058281
98 1       1.868555680043       1.932632671860       1.837554404394       0.451468513213       0.635217367742       0.607050788537
99 1       2.163402250882       1.691670268873       1.646132565103       0.553555461974      -0.761567998068      -0.482699654404
100 1       1.268671096114       0.114555862529       2.122293018503      -0.209259389002      -0.579960065817      -0.345360476359
101 1       2.083338170108       2.275411789786       1.942910910782      -0.339124191985       0.314156312441      -0.516589924414
102 1       1.257847701819       0.664613670420       0.540957504932      -0.295258668487       0.243297562881       0.007911887394
103 1       0.983222348161       0.599497107919       1.057372297126      -0.007563906173      -0.164844089118      -0.111279061579
104 1       2.110329104900       2.327402387972       1.983703590801      -0.278932115155      -0.268989565943       0.103254289196
105 1       1.423819177848       0.627527346112       1.105187599220       0.174248993329      -0.016990614729       0.189947021570
106 1       1.785103759292       2.363361975749       2.003225384719       0.365462559093      -0.103066330725      -0.361791187231
107 1       1.524681306826       1.448337558088       0.426218142369      -0.348800037561       0.110549355173      -0.440226051452
108 1       0.475744600213       1.476325919549       2.012719431127      -0.001852768036       0.079538249535      -0.525973432220
109 1       2.187804847443       1.736392218942       2.684078143602      -0.004817361913      -0.418837982216       0.313934891053
110 1       2.011711649249       1.864216476807       2.413490453121      -0.303562659808      -0.120998782892       0.062643834251
111 1       1.349139925055       1.583634271062       0.470890467950       0.324115472428       0.107382145721       0.401382314434
112 1       0.364056128186       1.771814918303       1.650935551990       0.124565535653       0.125047275484       0.432007810883
113 1       1.334334781634       0.708516551402       0.972220479660      -0.033088136253       0.190624653364      -0.419385909605
114 1       1.391224112870       1.432519725949       0.043220829202       0.237824349510       0.335306624561      -0.202670119423
115 1       2.047028907133       1.962640956357       2.589151331081      -0.127797177731       0.583674778022      -0.306996013389
116 1       2.062855170526       2.041089135032       1.553023144624      -0.543525834904       0.354322039856      -0.293984673104
117 1       1.812244560601       1.921947075727       1.943990571896       0.587453693128      -0.403557603507      -0.505521308188
118 1       2.117294097707       2.266431400170       1.803929597038       0.165960091843      -0.221498946355      -0.432376679936
119 1       1.252700523532      -0.010315291655       2.009372164273       0.240490238716       0.610566038361      -0.399437984096
120 1       1.586771801973       0.847087119486       0.804632001461      -0.108885239111       0.190540309742      -0.445917914452
121 1       2.176137101724       2.163933869113       1.737619256706       0.519670531299       0.372856725289       0.361073382617
122 1       2.273578118878       1.751123149951       2.671125172019      -0.012250389922       0.678849312713       0.362649716279
123 1       0.512600357490       1.713288597226       1.172165943977      -0.088534643835       0.032924909537       0.193236262863
124 1       0.523469952096       1.834634227100       2.076665538452      -0.019103964887       0.112361031876       0.333374847537
125 1       1.711833889446       2.063054949560       1.672772565482      -0.596712371982      -0.707297222797       0.608290053921
126 1       1.550093909674      -0.212562658530       1.668863609506       0.153416997234      -0.393240789920       0.184741727983
127 1       2.066760428776       2.092535076268       2.668732500772       0.311069421302       0.288053117184       0.242237877917
128 1       2.176786436669       2.086105356985       1.878466020802       0.490462331671       0.327794514409       0.137904203073
129 1       1.442598127266      -0.424101801664       1.636879762379      -0.162731705146       0.467524416625       0.149571903829
130 1       1.814189765593       2.080272775685       2.536212336701       0.153478664333       0.213174231609       0.600963524940
131 1       0.612528189343       1.677179723849       0.812017644419       0.102096977418      -0.525485610978      -0.124510045040
132 1       2.315796837392       2.204054160067       2.166493550341       0.312214963986      -0.133335346514      -0.040941891402
133 1       2.010856026154       2.220129911142       2.274193358433      -0.518485379092       0.537867779816      -0.255765573358
134 1       1.787342502915       2.141036276641       2.105380699542      -0.611651943142       0.537118886529      -0.888113088190
135 1       1.836814806245       1.972229566715       2.326525146397      -0.238899390750      -0.399314742697       0.448682334311
136 1       1.564211428283       0.797935816079       0.641338055844      -0.150074665529       0.161790050543       0.529402832156
137 1       0.169368532460       1.558373919380       1.492124253170       0.120202669740       0.000279999956      -0.192187049865
138 1       2.131341794684       2.174022637944       2.023961074388       0.304635897980      -0.379465583110      -0.341477463841
139 1       2.260321929047       2.094839151794       2.222838344632      -0.327410111851       0.317143172503      -0.052807043125
140 1       1.667226464027       0.292870800862       1.511090724214      -0.159667114825       0.328187384867      -0.197054575618
141 1       1.370844945737       1.350579516472      -0.073950554818      -0.384895912855      -0.296724378114      -0.275371541855
142 1       1.690219415229       2.091312981842       1.398429356402      -0.477723755691      -0.280376110801       0.539465735779
143 1       1.757951919072       0.399009190580       1.159207842998       0.178768585383       0.253888016166       0.113374430624
144 1       2.109398999539       2.050091358840       2.317854028211       0.329644405588       0.535831910719       0.549276472494
145 1       0.523855227149       1.766738274622       2.265460528870       0.030329511673       0.080538314602      -0.271156553310
146 1       0.371432633428       1.180371838254       1.132722708075       0.053620666248       0.179718660623      -0.038364719667
147 1       2.307049667122       2.310919190840       2.346453969052      -0.390096804287       0.354986268700      -0.247089943444
148 1       0.388466806917       1.531434200077       1.446901243846      -0.070672084523       0.271998381458      -0.142745467039
149 1      -0.272267630793       1.567480495434       1.418882097502      -0.192619714228      -0.133536211068      -0.412801024671
150 1       1.895509743783       2.035274247649       2.655864250300       0.165218576475      -0.473654436238      -0.218149208988
151 1       2.574601066469       2.186569099338       1.968626997007      -0.222837035329       0.109851591336      -0.087529161633
152 1       2.101020200992       2.221137272337       1.815334539887      -0.535447213462       0.598115279478      -0.465521591796
153 1       1.958221601660       1.860464403503       2.375186492733       0.325091300265       0.246260844491       0.287861256843
154 1       1.627260193261       0.913313915043       0.557163364262       0.202160914858       0.214535927590       0.481539231792
155 1       1.463356533339       1.244558641790      -0.176441564233      -0.280829783263      -0.049473240299       0.124582600518
156 1       1.725189293624       1.966358353081       1.569851463388      -0.455739257196      -0.284647616633       0.619330409674
157 1       2.143050482388       2.010692968746       2.231636724848      -0.182498867797      -0.328407476159       0.432775624661
158 1       0.882375737336       1.561255700820       0.555660340486      -0.154562407968      -0.412689828901       0.104132878041
159 1       1.457475909377       0.806350033710       0.605615347978       0.169975411529       0.135141757277       0.110779388777
160 1       1.797993785951       0.505613946400       2.020279963034       0.039622598487       0.266778543875       0.181635895526
