ITEM: TIMESTEP
0
ITEM: NUMBER OF ATOMS
160
ITEM: BOX BOUNDS pp pp pp
0.0000000000000000e+00 8.4044863139999997e+00
0.0000000000000000e+00 8.4044863139999997e+00
0.0000000000000000e+00 2.5213458942999999e+01
ITEM: ATOMS id type x y z fx fy fz
1 2       1.218890000000       5.215560000000      22.176040000000      -0.384155923649       0.153181083187      -0.045723188831
2 2       5.221280000000       0.849870000000      13.725110000000       0.022983680578       0.034025326659      -0.228830282283
3 2       7.183110000000       7.429610000000       7.416550000000      -0.014874098272      -0.188138055924      -0.195617827683
4 2       7.314160000000       7.160720000000      15.828440000000       0.009200838419       0.504528231458       0.081254708757
5 2       5.244980000000       5.268680000000       0.985560000000       0.302367110668       0.017323303870      -0.076315964343
6 2       3.042400000000       3.216870000000       7.236450000000       0.183097022596      -0.132076082338       0.116886707917
7 2       0.955380000000       1.052100000000       1.092830000000       0.075447168856       0.111412437202      -0.105355304113
8 2       5.188860000000       1.032250000000       5.263100000000      -0.009800428436       0.139327637765      -0.136996994890
9 2       3.195050000000       2.978020000000      15.709680000000      -0.080081400408       0.126182256932       0.017238106965
10 2       5.403750000000       1.121500000000      21.991770000000       0.000128957322       0.011029888755       0.243329989209
11 2       3.149410000000       7.278840000000      11.556510000000      -0.092698742681       0.086328579964      -0.081893223621
12 2       7.451740000000       3.207040000000      19.885630000000      -0.120202475795      -0.416472292502       0.069134943743
13 2       1.022720000000       5.117900000000      13.533430000000      -0.030117113827       0.253919599605       0.119889449051
14 2       7.353630000000       3.230890000000       3.217170000000      -0.335956607765      -0.014586062844       0.072522318174
15 2       5.113820000000       5.351470000000       9.405210000000       0.243038795732      -0.049257410250       0.187633472357
16 2       7.386780000000       7.467890000000      24.191150000000       0.016306566231      -0.182174902824      -0.030261940550
17 2       3.205840000000       7.479570000000      20.002870000000       0.077040939306      -0.187321260232      -0.088027190435
18 2       0.919270000000       1.078620000000       9.558930000000       0.106142797777      -0.214127141504      -0.178656397074
19 2       3.238210000000       7.451500000000       3.111480000000      -0.088947880599      -0.108874981634       0.049419975854
20 2       1.182740000000       1.037950000000      17.886460000000      -0.226641234790      -0.085066024432      -0.102591198699
21 2       3.945710000000       0.190200000000       8.416560000000       0.070595952449      -0.035901538968       0.013948069205
22 2       6.160110000000       6.137600000000      12.585390000000       0.337239096933       0.000926456275      -0.194505510020
23 2       2.169110000000       2.140600000000      21.025080000000      -0.002294882537      -0.137202028638       0.061711983352
24 2       6.431410000000       6.320420000000      20.979150000000      -0.009691989883       0.020778255990       0.384567650579
25 2       1.969230000000       6.423330000000       8.314840000000      -0.123335945325      -0.183970908432      -0.025120650612
26 2       8.354600000000       2.069920000000       6.265320000000      -0.261847506115      -0.167004205213       0.123372534573
27 2       2.003290000000       2.104320000000       4.239970000000       0.141431184423      -0.091784363722      -0.237274479166
28 2       0.053110000000       2.023760000000      14.673250000000      -0.106042292998      -0.068221958649       0.378266990509
29 2       0.164640000000       6.230550000000      18.864540000000       0.039728289555       0.342065368331       0.303444334204
30 2       6.291670000000       0.054750000000       2.111040000000       0.036891581853      -0.012341984062      -0.065249866195
31 2       6.119240000000       0.071970000000      10.567730000000       0.437968854533      -0.137365671973       0.210851881029
32 2       4.188650000000       2.208600000000      18.860900000000       0.333407855091       0.045270805107      -0.225009724892
33 2       6.435490000000       8.370160000000      18.917310000000      -0.256304879629       0.451783430259      -0.236642064712
34 2       6.380680000000       2.054710000000      16.790550000000      -0.074913893585      -0.484757861708       0.279451836747
35 2       0.162430000000       2.072440000000      23.170130000000      -0.063768315534       0.258819735187       0.089514174085
36 2       2.042470000000       8.194680000000      14.801350000000      -0.130984019599       0.088162394004       0.053478544811
37 2       4.024060000000       6.052580000000      14.714220000000       0.162893825915       0.071875669727       0.119705543300
38 2       6.268400000000       4.219320000000       6.329110000000      -0.302433738032       0.178506802691      -0.302423386040
39 2       4.227750000000       6.408180000000      23.152070000000       0.339992255034       0.406977477577      -0.143735875215
40 2       0.098320000000       4.204100000000      16.806040000000       0.155020514158      -0.313541766617      -0.132212573840
41 2       2.091490000000       4.253920000000       2.100320000000       0.002032874732       0.000594134115       0.001892278229
42 2       4.148430000000       4.324220000000      20.957910000000       0.271129438065      -0.050730732193      -0.295770812995
43 2       4.155510000000       8.213710000000      16.870720000000       0.455262268815       0.124450178934       0.195354309785
44 2       6.331610000000       4.256590000000      23.057970000000       0.405317764134      -0.101756160844       0.349044843620
45 2       8.340280000000       6.234140000000      10.481850000000      -0.159963160649       0.266469567614       0.258288240408
46 2       8.390090000000       8.332220000000      12.630570000000      -0.170817676096      -0.170292721568      -0.196360145744
47 2       0.025470000000       4.294730000000       0.043560000000      -0.376155835723      -0.083848236353      -0.334484266252
48 2       6.239250000000       4.079880000000      14.681070000000       0.141069103556       0.015479479952      -0.318497787061
49 2       4.158220000000       4.207000000000       4.158800000000       0.372737115311       0.132552859393       0.303524235859
50 2       2.133510000000       2.041870000000      12.535210000000       0.269258656282      -0.198784661108       0.234115341379
51 2       2.101650000000       4.128580000000      10.521420000000       0.113264100383       0.281312936911      -0.212372200346
52 2       0.041200000000       6.460250000000       2.203370000000       0.056921502459      -0.218059905891       0.023455730648
53 2       0.203390000000       8.363270000000      21.113780000000      -0.228416332708      -0.056593439700       0.013099389995
54 2       4.138000000000       2.043860000000       1.991910000000      -0.046329122539       0.221852999706       0.003360611216
55 2       6.226700000000       2.059830000000      25.164170000000      -0.049313964420       0.285003859663      -0.151915760430
56 2       8.381140000000       4.150330000000       8.402510000000      -0.060618247967       0.111298781655      -0.025318042334
57 2       6.106060000000       2.171390000000       8.506030000000       0.183407483790       0.124066230967      -0.007016888386
58 2       4.035370000000       6.443040000000       6.246740000000       0.064410855441      -0.383939137542      -0.240576681170
59 2       6.360910000000       6.447360000000       4.258120000000       0.074194914778      -0.369124871427       0.123994798510
60 2       2.190420000000       6.406420000000      25.185420000000      -0.244933127473       0.097361603567       0.173054035918
61 2       5.181650000000       3.131350000000      11.600250000000      -0.163958521683      -0.022197734005       0.039079083009
62 2       3.187420000000       1.074850000000      24.140210000000       0.114162376686      -0.294501461769       0.062875240453
63 2       3.178440000000       5.191270000000      17.852280000000      -0.036688852261      -0.024359858114      -0.024296337611
64 2       0.990170000000       7.424400000000       5.249280000000      -0.025266814595       0.158689305279      -0.064027254571
65 1       2.128350000000       2.149430000000       2.126420000000       0.238993993916       0.159187174555       0.229319172054
66 1       6.173380000000       6.252130000000       6.266590000000       0.067656218983      -0.081305751004      -0.164154357794
67 1       4.271210000000       8.335730000000       6.450080000000       0.041240346766       0.113644778653      -0.119466615879
68 1       4.322010000000       0.128350000000       2.099860000000      -0.034458971274       0.000147092008       0.008523239689
69 1       8.283440000000       6.391230000000       4.132820000000       0.283569891499      -0.019393229064       0.244587056140
70 1       0.033080000000       2.194270000000       4.289380000000       0.175257135941      -0.041266184327       0.188524760790
71 1       6.215550000000       4.178930000000       8.374350000000       0.247561493225      -0.249414149945      -0.117283667359
72 1       1.911890000000       4.459170000000       0.235340000000      -0.032006210992      -0.075652010176       0.113062148792
73 1       8.393920000000       4.368020000000       2.086150000000       0.273649397991       0.082390816960      -0.131309613652
74 1       8.144710000000       4.025140000000       6.538410000000      -0.018482296041      -0.003314318698       0.124358865062
75 1       4.302090000000       2.107710000000       0.058010000000      -0.297986319998       0.062551220872      -0.173959955935
76 1       4.027820000000       6.401000000000       8.271840000000      -0.130060037414       0.091165597933      -0.104294158254
77 1       2.116830000000       0.081200000000       4.187040000000       0.085666388229       0.162851714186      -0.005814888583
78 1       6.165930000000       8.349860000000       4.103550000000      -0.034122493222       0.176685428832       0.036399269917
79 1       2.108260000000       6.420470000000       6.378700000000      -0.218471371115       0.006623049530      -0.274436778023
80 1       6.243380000000       2.128580000000       2.037020000000      -0.084228864135      -0.163394945295      -0.094616798860
81 1       4.198350000000       4.136420000000       2.114070000000      -0.281704919078      -0.112397743775       0.136240742906
82 1       4.235980000000       4.344170000000       6.190330000000      -0.159790808268      -0.110616359417      -0.006267429087
83 1       8.206050000000       2.107350000000       8.392530000000      -0.037153781333       0.255952120076      -0.276097882231
84 1       0.042240000000       6.325890000000       0.088450000000       0.314678250773      -0.106559914348      -0.086789464651
85 1       8.263670000000       0.066100000000       6.325010000000       0.082394862872       0.173409446968      -0.044169305659
86 1       8.266100000000       8.378240000000       2.100590000000       0.033826291956      -0.006549177679      -0.016907694769
87 1       4.253580000000       6.252800000000       4.249730000000      -0.131592922158       0.044088087464       0.092867692120
88 1       4.138050000000       2.174300000000       4.123530000000      -0.273376620785       0.057455534809       0.067098815735
89 1       6.275280000000       2.169190000000       6.372860000000       0.262995808181       0.038314484112      -0.007262628921
90 1       2.060730000000       6.358390000000       2.074160000000      -0.250084226333      -0.147867229065      -0.185092723145
91 1       2.273610000000       4.052680000000       3.964130000000       0.048569191387       0.080351551781      -0.086858637080
92 1       6.180120000000       4.335170000000       4.286890000000       0.099747420391       0.030849003595       0.047710592124
93 1       6.407380000000       0.154080000000       0.112380000000       0.042330809012      -0.110376317334      -0.005509856865
94 1       2.045490000000       8.356420000000       8.560900000000       0.134429134694       0.283345792631       0.087118403974
95 1       6.344320000000       6.378380000000       2.165180000000       0.069044585300       0.148380126928       0.142363415385
96 1       1.920310000000       2.180370000000       6.186000000000      -0.028718640795      -0.112667773685       0.104863735307
97 1       2.018020000000       2.161660000000      10.583460000000       0.182015968513       0.060078127202       0.039111260153
98 1       6.225180000000       6.140910000000      14.637580000000      -0.161416659986      -0.213133403151      -0.190008122919
99 1       4.122600000000       8.217970000000      14.849190000000      -0.032668114706      -0.193782158107       0.128086229260
100 1       4.227750000000       8.231580000000      10.372390000000      -0.176096121186       0.021869652631       0.111647503113
101 1       8.257870000000       6.308620000000      12.509820000000       0.048237510358      -0.122219539514      -0.058560994338
102 1       0.176570000000       1.800450000000      12.807150000000      -0.039949468514      -0.014466728520      -0.081826000130
103 1       6.573460000000       3.918110000000      16.564910000000      -0.073191884534       0.048355362818       0.022044931216
104 1       2.031720000000       4.326970000000       8.414450000000      -0.242473299784       0.005225486026       0.242446720317
105 1       0.133280000000       4.361150000000      10.266140000000      -0.021311973983      -0.000951011282      -0.079450293301
106 1       0.005300000000       4.032860000000      14.718610000000      -0.188885742732      -0.051949815075       0.217767973094
107 1       4.170520000000       2.095100000000       8.244240000000      -0.306474567526      -0.130083912072      -0.111616470507
108 1       4.133230000000       6.307100000000      16.685340000000      -0.041583240098      -0.050888408451       0.317554521990
109 1       2.033680000000       8.361620000000      12.665740000000      -0.041401985356       0.252503003231      -0.103097070108
110 1       6.352860000000       8.241110000000      12.562570000000       0.039946947210       0.121197807955      -0.120162079798
111 1       2.108370000000       6.274900000000      14.544990000000       0.093230696475      -0.323712817296      -0.139366971555
112 1       6.139990000000       2.004230000000      10.437180000000       0.019257654832       0.225703902015       0.218632891045
113 1       4.117840000000       4.252170000000      10.514560000000      -0.203913842072      -0.132398053470       0.115861297121
114 1       4.292470000000       4.148540000000      14.795480000000      -0.053326279110       0.192524698471       0.031424097063
115 1       0.029770000000       2.038840000000      16.705380000000      -0.031559344208       0.237324848782       0.090788655749
116 1       8.361360000000       6.316170000000       8.433950000000       0.231243420078      -0.260773176684       0.158357110501
117 1       0.039150000000       8.287760000000      14.709790000000       0.227915993963       0.127928002096      -0.117216257116
118 1       8.217060000000       8.273130000000      10.604730000000       0.168866325236       0.133888401282       0.033491474013
119 1       4.269520000000       6.375430000000      12.754650000000      -0.113462795108       0.010275230465      -0.015175929979
120 1       4.164480000000       1.952620000000      12.657790000000      -0.202842370167      -0.010825616264      -0.035970411422
121 1       6.394640000000       1.971460000000      14.740040000000       0.183711583857       0.324763004186       0.068715348707
122 1       1.995830000000       6.223510000000      10.437310000000      -0.055826273043      -0.213220425307       0.029756424577
123 1       2.052260000000       4.015430000000      12.472870000000       0.079101958191      -0.008275333997       0.002896559345
124 1       6.226470000000       4.214410000000      12.728590000000      -0.104369912395      -0.220843598358      -0.242950132044
125 1       6.130400000000       0.108270000000       8.542600000000      -0.102075765032       0.148941321232       0.110277457838
126 1       2.236620000000       0.050940000000      16.719140000000      -0.179040523476      -0.049798404772       0.096060288204
127 1       6.310610000000       6.339160000000      10.553850000000       0.087028755829      -0.106425433477       0.216515996134
128 1       2.100080000000       1.883840000000      14.627960000000      -0.281904575189       0.062254093177      -0.283054960699
129 1       2.280500000000       2.010130000000      19.027740000000      -0.054915962976      -0.090309408195       0.034432192295
130 1       6.356280000000       6.330960000000      23.018100000000      -0.214808522289      -0.048497582380       0.050233167492
131 1       4.340130000000       0.034960000000      23.068510000000       0.025003160677      -0.217479328460       0.035902740528
132 1       4.387570000000       0.070440000000      18.847760000000      -0.024573184027      -0.221455111419      -0.006769925346
133 1       0.110590000000       6.363700000000      21.039540000000      -0.035790433311       0.128728768151      -0.255741121496
134 1       0.111060000000       2.081020000000      21.074130000000       0.217287605002       0.063345442266       0.125924820331
135 1       6.414900000000       4.171710000000      25.119860000000      -0.111647616583      -0.060237756197      -0.040023881968
136 1       2.111350000000       4.052530000000      16.790340000000      -0.104635801757       0.053782667777       0.022977639736
137 1       0.061260000000       4.264660000000      18.775570000000       0.072539668448       0.173746792230      -0.138944629540
138 1       8.363590000000       4.157960000000      23.214970000000       0.127659535692       0.082106256984       0.004723234934
139 1       4.355390000000       1.949220000000      16.878980000000       0.025784043846       0.209434896750      -0.002540140160
140 1       4.165690000000       6.306760000000      25.117740000000      -0.177690374347       0.025503783298      -0.148179310186
141 1       2.103590000000       0.145640000000      21.009400000000       0.022211159201      -0.024302800652       0.001415726966
142 1       6.505260000000       0.012840000000      20.938740000000       0.038051995470      -0.314759703955      -0.166736881399
143 1       2.261980000000       6.327370000000      23.235860000000      -0.034314197799       0.074330589730      -0.057527160602
144 1       6.320080000000       2.002990000000      18.829670000000      -0.087802299665       0.083843595462      -0.060023807285
145 1       4.224560000000       4.134220000000      19.016840000000      -0.033646454208       0.205299018994      -0.347087211462
146 1       4.474450000000       4.476940000000      22.846510000000      -0.045994685136      -0.069025780318       0.009420993527
147 1       8.338030000000       2.250270000000      25.169140000000       0.139070327444      -0.012433595729      -0.098314066881
148 1       0.027120000000       6.158460000000      16.896890000000       0.211033220316      -0.081192727210       0.060356573611
149 1       8.328490000000       0.158930000000      23.021160000000      -0.029439999539      -0.123265042037       0.100558328796
150 1       0.059560000000       8.369470000000      18.993480000000      -0.002468836095      -0.301876237823      -0.094397084586
151 1       4.370090000000       6.373690000000      21.030420000000       0.092816864470      -0.269479010759       0.162654826717
152 1       4.262480000000       2.208320000000      20.909160000000      -0.224135859044       0.224498536760      -0.072788744764
153 1       6.432470000000       2.249260000000      23.159380000000      -0.030216327618       0.036247237814       0.112493153594
154 1       2.158820000000       6.338370000000      18.945150000000      -0.052823291441       0.106893320092       0.050347044735
155 1       2.227980000000       4.104980000000      21.093490000000       0.011755301921       0.004090234164       0.000885328205
156 1       6.395120000000       4.308460000000      21.027160000000      -0.295170741527       0.097712923894       0.110369632962
157 1       6.266490000000       0.007230000000      16.882640000000       0.079915364278       0.015989191781       0.078943821230
158 1       2.077730000000       0.015610000000       0.017230000000      -0.071607498940      -0.105864256205       0.001077978575
159 1       6.632400000000       6.491520000000      19.112690000000      -0.115728608788      -0.039945655482      -0.080073630735
160 1       2.065460000000       2.073820000000      23.019650000000       0.151590917525      -0.038313538507       0.157022360067
