40
Config_type=bulk_kappa_phase Weight=1.0 Lattice="8.643692833 0.000000000 0.000000000 0.000000000 5.033493677 0.000000000 0.000000000 0.000000000 9.249005314" Energy=-339.75969380 Virial="26.22558 -0.00015 -0.00048 -0.00015 28.08096 0.01606 -0.00048 0.01606 25.12384" pbc="T T T" Properties=species:S:1:pos:R:3:forces:R:3
Ga	      1.36065      1.55463      8.20751         0.004271     -0.006801      0.003039
Ga	      3.06830      4.07137      8.20751        -0.003961     -0.007081      0.003637
Ga	      5.68226      0.90273      7.38242         0.000705      0.016037     -0.006071
Ga	      7.39037      3.41948      7.38243        -0.000452      0.013821     -0.007367
Ga	      4.64376      3.40662      5.51588         0.000251      0.014320     -0.011749
Ga	      1.45372      3.45381      5.63710        -0.009699     -0.011016      0.001386
Ga	      2.97522      0.93707      5.63710         0.010646     -0.009569      0.001592
Ga	      8.42889      0.88987      5.51588        -0.000303      0.014462     -0.012223
Ga	      1.36032      1.61363      2.75801         0.000013     -0.014211     -0.006697
Ga	      3.06864      4.13037      2.75801         0.000671     -0.014098     -0.008589
Ga	      5.68201      0.96283      3.58303         0.004001      0.006171      0.001346
Ga	      7.39063      3.47958      3.58303        -0.005998      0.004678      0.000998
Ga	      4.10734      1.62701      0.89151         0.000421     -0.011683     -0.009643
Ga	      5.77540      4.09645      1.01227        -0.007862      0.011594      0.004266
Ga	      7.29724      1.57971      1.01227         0.008223      0.010569      0.005635
Ga	      0.32161      4.14376      0.89151        -0.000973     -0.011651     -0.009814
O	      7.21751      1.75907      4.37762        -0.007020      0.009268      0.014526
O	      0.02025      0.75952      0.01214        -0.003314     -0.002278      0.002304
O	      7.25799      0.11432      6.83542        -0.010391      0.003545      0.000248
O	      7.19610      4.91444      2.11655        -0.006413     -0.011537      0.000390
O	      5.85513      4.27582      4.37761         0.006980      0.009402      0.014550
O	      7.32061      3.29815      9.23487         0.007384      0.007147     -0.009841
O	      5.81465      2.63107      6.83542         0.010269      0.003246      0.000375
O	      5.87655      2.39770      2.11655         0.007314     -0.011683      0.000330
O	      1.43004      1.73521      4.61058        -0.007271     -0.006412     -0.009241
O	      2.89582      0.75814      9.00257        -0.008655     -0.011544      0.011741
O	      1.55545      0.11859      6.74174         0.005497      0.011237     -0.000299
O	      1.49291      4.91877      2.21124         0.008803     -0.002867     -0.000661
O	      0.08716      4.27433      4.63663         0.006127      0.001015      0.005124
O	      1.53312      3.27489      9.00257         0.008659     -0.012055      0.011889
O	      0.16439      2.40385      6.78579        -0.009417      0.006135      0.005195
O	      8.58623      2.62936      2.16142         0.008087     -0.005604      0.005173
O	      4.34179      1.75758      4.63664        -0.005991      0.000920      0.005400
O	      5.75203      0.78141      9.23487        -0.007293      0.006943     -0.009733
O	      4.26455      4.92060      6.78579         0.008453      0.006038      0.005848
O	      4.48642      0.11261      2.16142        -0.009439     -0.005858      0.005408
O	      2.99891      4.25196      4.61058         0.007710     -0.006720     -0.009216
O	      4.40869      3.27626      0.01214         0.003302     -0.002145      0.001845
O	      2.87349      2.63533      6.74174        -0.004723      0.011252     -0.000279
O	      2.93605      2.40203      2.21124        -0.008613     -0.002987     -0.000821
