ITEM: TIMESTEP
0
ITEM: NUMBER OF ATOMS
40
ITEM: BOX BOUNDS pp pp pp
0.0000000000000000e+00 8.7845269320000003e+00
0.0000000000000000e+00 5.1155057939999997e+00
0.0000000000000000e+00 9.3997019389999998e+00
ITEM: ATOMS id type c_pe_atom
1 2      -6.735420722209
2 2      -6.735448756630
3 2      -8.192045415777
4 2      -8.192023709905
5 2      -5.791349062365
6 2      -4.044447899003
7 2      -4.044413431263
8 2      -5.791304194731
9 2      -8.193394636250
10 2      -8.193368078225
11 2      -6.738829323864
12 2      -6.738855671775
13 2      -5.785385182707
14 2      -4.043601183669
15 2      -4.043640600180
16 2      -5.785447961415
17 1      -3.571828771660
18 1      -2.572467225895
19 1      -3.638735898364
20 1     -10.507758436885
21 1      -3.571836054196
22 1      -7.460996020400
23 1      -3.638753103821
24 1     -10.507836668115
25 1      -7.465173463575
26 1      -3.568259447350
27 1     -10.508043564568
28 1      -3.636994414425
29 1      -2.569771029090
30 1      -3.568317113340
31 1      -6.922663211413
32 1      -6.922332961871
33 1      -2.569732930264
34 1      -7.461016553130
35 1      -6.922618618098
36 1      -6.922369984331
37 1      -7.465187870164
38 1      -2.572479732576
39 1     -10.508073549716
40 1      -3.636947431437
