ITEM: TIMESTEP
0
ITEM: NUMBER OF ATOMS
30
ITEM: BOX BOUNDS xy xz yz pp pp pp
-2.5470489380000001e+00 5.0940978960000001e+00 -2.5470489380000001e+00
0.0000000000000000e+00 4.4116186080000004e+00 0.0000000000000000e+00
0.0000000000000000e+00 1.3713676217000000e+01 0.0000000000000000e+00
ITEM: ATOMS id type v_vir_xx v_vir_yy v_vir_zz v_vir_xy v_vir_xz v_vir_yz
1 2      -3.104660407514      -3.104606872005      -1.820033946898       0.000015396746       0.000001953650      -0.000011743297
2 2      -3.104707109365      -3.104651303157      -1.820221794324      -0.000018721054      -0.000002724250      -0.000012129762
3 2      -3.104612456987      -3.104570808906      -1.820069231507       0.000010693295       0.000003758551      -0.000007997212
4 2      -3.104552862317      -3.104539723928      -1.820066847172      -0.000017199217      -0.000011555730      -0.000004043904
5 2      -3.104663782322      -3.104651896109      -1.820252038691      -0.000002054336       0.000016839748      -0.000003911298
6 2      -3.104609649609      -3.104580635216      -1.819989912094       0.000001033924      -0.000012740593       0.000003274773
7 2      -3.104642255252      -3.104631621104      -1.820306365226       0.000006613446       0.000014302317      -0.000006630530
8 2      -3.104596780816      -3.104585898797      -1.820105849495      -0.000006509891      -0.000012112848      -0.000004942102
9 2      -3.104645259693      -3.104608242723      -1.820173467259      -0.000003484020       0.000009479155       0.000001636357
10 2      -3.104605172911      -3.104588916359      -1.820119250424       0.000002504375      -0.000013840049      -0.000003221479
11 2      -3.104610932880      -3.104590268123      -1.820136318850       0.000014798127       0.000007565370      -0.000004975361
12 2      -3.104670204232      -3.104629266177      -1.820224352259      -0.000013277254      -0.000004556384      -0.000008948556
13 1       2.027305388767       2.865106610311       1.586191282261      -0.725545573779       0.664310759527       0.383537491207
14 1       3.284056555685       1.608404573591       1.586188053821       0.000003757776      -0.000002044742      -0.767084856391
15 1       2.027320561957       2.865098225322       1.586179687255       0.725556917339      -0.664317491982       0.383538106016
16 1       2.027312469095       2.865066526406       1.586164785359      -0.725570411060       0.664303647895       0.383518356345
17 1       2.027271409257       2.865108227122       1.586164653810       0.725547243253      -0.664290311771       0.383540504856
18 1       3.284059062529       1.608386383214       1.586164279931       0.000023701312      -0.000012610459      -0.767070620922
19 1       2.027269075481       2.865095964148       1.586173816897      -0.725547674928       0.664295636379       0.383540043884
20 1       3.284026864635       1.608374140908       1.586181900701      -0.000024659062       0.000016070218      -0.767069097350
21 1       2.027309231795       2.865054634690       1.586173919446       0.725571316395      -0.664311238814       0.383512722907
22 1       2.027221403813       2.865091016499       1.586160695125      -0.725558788439       0.664298117782       0.383540787448
23 1       2.027258626626       2.865039338390       1.586159468380       0.725586344529      -0.664305898292       0.383516184526
24 1       3.283961952043       1.608336408459       1.586142944912      -0.000025182712       0.000012183597      -0.767052427706
25 1       2.027276617033       2.865059861727       1.586170052684      -0.725561162042       0.664309228780       0.383528691746
26 1       3.284032677265       1.608355362304       1.586180911980      -0.000002132057      -0.000002724436      -0.767075678553
27 1       2.027265584914       2.865074543808       1.586183735992       0.725558232896      -0.664300424096       0.383536790087
28 1       2.027251679083       2.865091431982       1.586176132175      -0.725559269941       0.664297959436       0.383539442438
29 1       2.027283680887       2.865075960641       1.586174844080       0.725572432975      -0.664311414514       0.383524692819
30 1       3.283980435290       1.608366222605       1.586162002636      -0.000014080158       0.000008469060      -0.767059231969
