ITEM: TIMESTEP
0
ITEM: NUMBER OF ATOMS
30
ITEM: BOX BOUNDS xy xz yz pp pp pp
-2.5470489380000001e+00 5.0940978960000001e+00 -2.5470489380000001e+00
0.0000000000000000e+00 4.4116186080000004e+00 0.0000000000000000e+00
0.0000000000000000e+00 1.3713676217000000e+01 0.0000000000000000e+00
ITEM: ATOMS id type c_pe_atom
1 2      -4.953523272091
2 2      -4.953396430890
3 2      -4.953554945143
4 2      -4.953605133349
5 2      -4.953327327581
6 2      -4.953500231698
7 2      -4.953375680320
8 2      -4.953536257280
9 2      -4.953444912189
10 2      -4.953523867296
11 2      -4.953449794956
12 2      -4.953387120577
13 1      -6.595212950517
14 1      -6.595278562399
15 1      -6.595257479083
16 1      -6.595255513872
17 1      -6.595254597297
18 1      -6.595322250882
19 1      -6.595319752037
20 1      -6.595362025925
21 1      -6.595319238279
22 1      -6.595312733875
23 1      -6.595297509249
24 1      -6.595289946260
25 1      -6.595369391398
26 1      -6.595401156544
27 1      -6.595339133314
28 1      -6.595267105657
29 1      -6.595282882333
30 1      -6.595264673921
