ITEM: TIMESTEP
0
ITEM: NUMBER OF ATOMS
30
ITEM: BOX BOUNDS xy xz yz pp pp pp
-2.5470489380000001e+00 5.0940978960000001e+00 -2.5470489380000001e+00
0.0000000000000000e+00 4.4116186080000004e+00 0.0000000000000000e+00
0.0000000000000000e+00 1.3713676217000000e+01 0.0000000000000000e+00
ITEM: ATOMS id type x y z fx fy fz
1 2       0.000000000000       0.000000000000       1.976680000000       0.000008102470       0.000019048493      -0.046317672039
2 2       0.000000006667       2.941080000000       0.308940000000       0.000007260477      -0.000018152927       0.046217269864
3 2       2.547050003333       1.470540000000       2.594540000000      -0.000012735654      -0.000010899120       0.046358060287
4 2       0.000000006667       2.941080000000       4.262300000000       0.000005452747       0.000001973913      -0.046322575424
5 2       2.547050003333       1.470540000000       6.547900000000      -0.000032886433       0.000006830238      -0.046277317342
6 2       0.000000000000       0.000000000000       4.880160000000      -0.000015023950       0.000007494035       0.046341334024
7 2       0.000000006667       2.941080000000       7.165780000000       0.000009558374      -0.000014984126       0.046260376923
8 2       0.000000000000       0.000000000000       8.833520000000       0.000010841248       0.000015981008      -0.046344108868
9 2       0.000000006667       2.941080000000      11.119130000000      -0.000008492459      -0.000004565210      -0.046237900855
10 2       2.547050003333       1.470540000000       9.451380000000      -0.000028120338      -0.000003594050       0.046333381581
11 2       0.000000000000       0.000000000000      11.737000000000       0.000003859231      -0.000000058691       0.046318024017
12 2       2.547050003333       1.470540000000      13.404740000000      -0.000012776048       0.000013591468      -0.046367559473
13 1      -0.771769996970       1.336750000000       3.428420000000       0.024940509713      -0.043269408665      -0.000030264817
14 1       1.543540000000       0.000000000000       3.428420000000      -0.049884323766       0.000009656282      -0.000010876749
15 1       1.775280006970       3.074870000000       3.428420000000       0.024917928173       0.043267995989       0.000005208942
16 1       3.318820000303       0.133790000000       1.142800000000      -0.024920678419       0.043316747175       0.000117170311
17 1       3.318820006363       2.807290000000       1.142800000000      -0.024982731686      -0.043280866154       0.000065979335
18 1       1.003510003333       1.470540000000       1.142800000000       0.049907207683      -0.000034897207       0.000094367071
19 1       1.775280006363       2.807290000000       7.999640000000       0.024967193508      -0.043288719570       0.000087674118
20 1       4.090590003333       1.470540000000       7.999640000000      -0.049923996834      -0.000036160573       0.000101331530
21 1       1.775280000303       0.133790000000       7.999640000000       0.024903410327       0.043326564753       0.000116820152
22 1       0.771770003637       1.604330000000       5.714040000000      -0.025008549532       0.043282137842      -0.000083717853
23 1       0.771770009697       4.277830000000       5.714040000000      -0.024938565737      -0.043329578412      -0.000130469816
24 1      -1.543549993333       2.941080000000       5.714040000000       0.050037086392       0.000035277229      -0.000102776277
25 1      -0.771769990303       4.277830000000      12.570870000000       0.024945097319      -0.043312786921      -0.000023080978
26 1       1.543540006667       2.941080000000      12.570870000000      -0.049919327317      -0.000000710568      -0.000008703715
27 1      -0.771769996363       1.604330000000      12.570870000000       0.024958346900       0.043299657740       0.000012246562
28 1       3.318820006970       3.074870000000      10.285260000000      -0.024988172421       0.043267083733      -0.000035638716
29 1       0.771770003030       1.336750000000      10.285260000000      -0.024942877763      -0.043289224905      -0.000079432580
30 1       3.550550000000       0.000000000000      10.285260000000       0.049997403797       0.000024567198      -0.000057149216
