ITEM: TIMESTEP
0
ITEM: NUMBER OF ATOMS
160
ITEM: BOX BOUNDS pp pp pp
0.0000000000000000e+00 8.3918832390000002e+00
0.0000000000000000e+00 8.3918832390000002e+00
0.0000000000000000e+00 2.5175649715999999e+01
ITEM: ATOMS id type c_pe_atom
1 2      -4.630838869847
2 2      -4.450086887680
3 2      -4.448411039721
4 2      -4.594179443332
5 2      -4.581260962325
6 2      -4.650994019330
7 2      -4.502126544105
8 2      -4.456027236750
9 2      -4.479115313256
10 2      -4.447733243639
11 2      -4.437480767402
12 2      -4.583475173068
13 2      -4.631905443350
14 2      -4.573635489015
15 2      -4.446967365808
16 2      -4.465950199077
17 2      -4.517134372538
18 2      -4.641336229716
19 2      -4.503854174584
20 2      -4.466934305404
21 2      -4.996332048927
22 2      -4.925443030691
23 2      -5.116589965159
24 2      -4.782229869069
25 2      -4.925802645361
26 2      -5.226769023646
27 2      -5.199314502535
28 2      -4.749994244063
29 2      -5.186666812229
30 2      -5.046986588510
31 2      -4.921879405047
32 2      -4.912572569264
33 2      -4.878593984172
34 2      -4.835313599461
35 2      -4.883378981236
36 2      -4.820420959480
37 2      -5.059262360471
38 2      -4.854480190798
39 2      -5.188066922109
40 2      -5.203779822168
41 2      -4.918565222521
42 2      -5.014483592868
43 2      -4.932741586085
44 2      -4.875342497355
45 2      -4.842702791843
46 2      -4.822899404095
47 2      -4.894273905307
48 2      -5.053674342257
49 2      -4.893222543327
50 2      -5.208014897721
51 2      -5.224600166367
52 2      -4.884964136224
53 2      -4.806287932753
54 2      -4.888234559167
55 2      -4.878904115414
56 2      -4.877767644378
57 2      -4.930071517776
58 2      -4.917371468276
59 2      -4.876135561277
60 2      -5.194473988165
61 2      -4.820666759652
62 2      -4.778924694961
63 2      -4.786697612284
64 2      -4.798621914123
65 1     -11.007220735892
66 1     -11.061750225533
67 1     -10.966922422392
68 1     -10.999895576290
69 1     -10.982622484200
70 1     -10.854279476166
71 1     -10.990051460716
72 1     -10.644983428394
73 1     -10.944081223012
74 1     -10.632753043370
75 1     -10.949964849967
76 1     -10.925477463957
77 1     -11.149452734174
78 1     -10.950237789531
79 1     -10.955970198136
80 1     -10.899194895131
81 1     -10.939087955032
82 1     -11.027483003866
83 1     -10.928024469049
84 1     -10.968723422018
85 1     -11.175998500014
86 1     -11.007686394584
87 1     -11.037021171424
88 1     -10.958658631472
89 1     -10.952826006972
90 1     -11.006744642304
91 1     -10.641380242099
92 1     -11.038802253069
93 1     -10.951933564415
94 1     -11.006710006122
95 1     -10.891763843329
96 1     -10.853667503096
97 1     -10.855419065451
98 1     -10.852912971473
99 1     -10.940413995739
100 1     -10.945058796876
101 1     -11.025682493205
102 1     -10.631359137633
103 1     -10.597515668455
104 1     -10.952244758778
105 1     -10.638684292463
106 1     -10.960666271041
107 1     -10.992997585687
108 1     -10.909348333030
109 1     -10.976302139096
110 1     -11.075433993633
111 1     -11.017421013216
112 1     -10.951610228642
113 1     -11.160597930693
114 1     -11.016692192612
115 1     -10.986742051193
116 1     -10.976319923445
117 1     -10.992595767375
118 1     -11.022109411080
119 1     -10.974292890256
120 1     -11.163894313784
121 1     -10.971045789327
122 1     -10.964500114536
123 1     -10.861919184582
124 1     -10.959834939125
125 1     -10.928071624631
126 1     -11.034505320318
127 1     -11.053565064717
128 1     -11.018583822423
129 1     -10.957937807826
130 1     -10.983169289560
131 1     -11.148213097751
132 1     -11.047339153116
133 1     -10.988292326128
134 1     -10.895950515024
135 1     -11.029357387930
136 1     -11.126829221377
137 1     -10.863623882390
138 1     -11.015167633992
139 1     -11.057484321729
140 1     -10.866324164381
141 1     -10.994938004549
142 1     -11.006156843489
143 1     -10.885382820065
144 1     -11.014376272007
145 1     -10.960638517402
146 1     -10.592030362199
147 1     -11.034767474356
148 1     -10.881292071173
149 1     -11.062208663134
150 1     -10.963077308240
151 1     -10.988897990740
152 1     -10.917612568005
153 1     -11.069687087104
154 1     -11.156221960348
155 1     -10.907795789075
156 1     -10.926112693413
157 1     -11.026342621263
158 1     -11.147665556849
159 1     -10.639390717654
160 1     -10.888861158646
