ITEM: TIMESTEP
0
ITEM: NUMBER OF ATOMS
160
ITEM: BOX BOUNDS pp pp pp
0.0000000000000000e+00 8.3918832390000002e+00
0.0000000000000000e+00 8.3918832390000002e+00
0.0000000000000000e+00 2.5175649715999999e+01
ITEM: ATOMS id type x y z fx fy fz
1 2       1.218480000000       5.208790000000      22.139920000000      -0.099528148956       0.089919134516      -0.058409388775
2 2       5.212510000000       0.847240000000      13.704060000000      -0.176772821087      -0.032441088822      -0.023960003195
3 2       7.172400000000       7.419900000000       7.406300000000      -0.142721662626       0.098900739741      -0.053594986567
4 2       7.302460000000       7.149460000000      15.804050000000       0.013378680633      -0.038908824591       0.048736186162
5 2       5.233270000000       5.262690000000       0.985070000000       0.134153480998       0.252424182075      -0.041097837304
6 2       3.037090000000       3.210860000000       7.227170000000      -0.001183090531      -0.162902624656      -0.029842991873
7 2       0.953340000000       1.050170000000       1.090040000000      -0.112501441117       0.012951650808       0.008256229516
8 2       5.180490000000       1.034450000000       5.254860000000       0.022643264901       0.105668861755       0.009141998637
9 2       3.188330000000       2.973270000000      15.687430000000      -0.073645135593       0.021073635606      -0.011664152844
10 2       5.395820000000       1.119280000000      21.960370000000      -0.087230785665       0.053427276907       0.053294106994
11 2       3.144230000000       7.267040000000      11.541870000000      -0.040865252766      -0.006909264555      -0.018544193465
12 2       7.439110000000       3.201340000000      19.855950000000       0.138836518394      -0.186089870552      -0.054140167305
13 2       1.020330000000       5.109630000000      13.515710000000       0.044220744252       0.085153365948      -0.028418626984
14 2       7.341350000000       3.228230000000       3.210700000000      -0.102658492530      -0.264262973358       0.042019325042
15 2       5.109670000000       5.346540000000       9.392550000000      -0.097115421965       0.115887544837       0.036341786536
16 2       7.374450000000       7.456100000000      24.156360000000      -0.030805881236      -0.141699837226       0.023520754273
17 2       3.201700000000       7.467020000000      19.972840000000      -0.120611068848      -0.042572159395       0.040671574054
18 2       0.917360000000       1.080740000000       9.543020000000       0.118275261547       0.005727518369       0.002815047549
19 2       3.234030000000       7.438200000000       3.102080000000       0.091010048878       0.029538243058      -0.022442438697
20 2       1.178980000000       1.036010000000      17.860630000000      -0.095137923454       0.041896941330       0.033065954834
21 2       3.938610000000       0.188220000000       8.403670000000       0.237098623647      -0.186572526418       0.018430351484
22 2       6.151820000000       6.127960000000      12.564620000000       0.032145204487      -0.059418106509      -0.047005955419
23 2       2.167740000000       2.137120000000      20.994960000000       0.031292344938      -0.116642517508       0.013396994697
24 2       6.422210000000       6.308260000000      20.949920000000      -0.007726859087      -0.227723588707       0.052674252500
25 2       1.968710000000       6.412860000000       8.303820000000      -0.091748407887       0.055738585748      -0.007907925494
26 2       8.341980000000       2.066270000000       6.256270000000       0.229540357030       0.020168806292      -0.235282318562
27 2       1.995180000000       2.099160000000       4.229710000000      -0.115721298655       0.131854339757       0.156413555477
28 2       0.052180000000       2.018390000000      14.648940000000       0.056318754632       0.274928937499       0.084591528047
29 2       0.164660000000       6.218200000000      18.836710000000       0.066381746845      -0.094951988143      -0.123145664207
30 2       6.284160000000       0.054860000000       2.108220000000       0.014980566273      -0.019285729387      -0.044483810122
31 2       6.110380000000       0.075220000000      10.552250000000       0.009882422294      -0.029721244485       0.073543882400
32 2       4.183260000000       2.202220000000      18.833900000000       0.083459374074      -0.044887552670      -0.206445198846
33 2       6.425020000000       8.354440000000      18.890010000000       0.124923357133       0.088170704594      -0.088365747643
34 2       6.369250000000       2.052980000000      16.765100000000      -0.028794579646      -0.004462229713       0.236648527363
35 2       0.160300000000       2.071070000000      23.131580000000      -0.026037628250       0.101553148429       0.220318637768
36 2       2.039770000000       8.177910000000      14.779340000000      -0.138125008815       0.017899680129      -0.079014478965
37 2       4.020850000000       6.039670000000      14.692770000000       0.201281316146       0.176935554310       0.005027205344
38 2       6.259970000000       4.214170000000       6.320420000000      -0.040284218700      -0.013759444358      -0.218756441402
39 2       4.220990000000       6.400610000000      23.115410000000      -0.095331060244      -0.080843810055       0.207979541067
40 2       0.094310000000       4.196420000000      16.780730000000       0.032316696253       0.035124605292       0.234109191330
41 2       2.091030000000       4.247720000000       2.096050000000      -0.000281202602      -0.009905491210       0.005465180828
42 2       4.144690000000       4.315820000000      20.926170000000       0.057657211717      -0.035020610827       0.058273948741
43 2       4.150300000000       8.200170000000      16.844690000000       0.082954289895       0.020070063758       0.152248191008
44 2       6.321400000000       4.251230000000      23.030490000000       0.054277381027      -0.150364766661       0.084899718406
45 2       8.328780000000       6.224750000000      10.467490000000      -0.020012446498       0.049539699194       0.240701197853
46 2       8.377040000000       8.322000000000      12.610580000000       0.014739091198      -0.117054072805      -0.291344567648
47 2       0.028120000000       4.286690000000       0.041940000000      -0.094027501106       0.056096312780      -0.153609580896
48 2       6.230930000000       4.071960000000      14.657190000000       0.124271264175       0.112069420682      -0.035966807909
49 2       4.148810000000       4.200500000000       4.160500000000       0.082132434910      -0.062002165613       0.171869768242
50 2       2.131300000000       2.040930000000      12.516830000000      -0.089170910980       0.216694114829      -0.156395043789
51 2       2.099160000000       4.123100000000      10.505040000000      -0.132211137648      -0.186734303470       0.133424202025
52 2       0.042170000000       6.448870000000       2.201570000000       0.117025718000       0.038306857697      -0.078391874406
53 2       0.204710000000       8.349110000000      21.082280000000      -0.004823499335      -0.227966635970      -0.129842527151
54 2       4.133030000000       2.043250000000       1.990630000000      -0.165300335186      -0.036028871292       0.015073781241
55 2       6.218390000000       2.057720000000      25.129400000000       0.043036935048       0.042440439548      -0.213516715827
56 2       8.370110000000       4.147940000000       8.388870000000      -0.028138978989      -0.012423713198      -0.013546361297
57 2       6.096050000000       2.170650000000       8.494180000000      -0.053640197758       0.101771903221      -0.076058034096
58 2       4.028840000000       6.437240000000       6.235150000000       0.051845655356      -0.044773501293      -0.113512334122
59 2       6.351520000000       6.436170000000       4.250160000000      -0.055447361315      -0.040526548600       0.190989656805
60 2       2.184810000000       6.396360000000      25.141480000000       0.145593314776      -0.097523193809      -0.120526145000
61 2       5.175400000000       3.126970000000      11.582200000000      -0.102221828946      -0.071662040055      -0.002474385390
62 2       3.183620000000       1.077180000000      24.105240000000       0.063701517955      -0.044438830807      -0.023208835042
63 2       3.173220000000       5.181420000000      17.826000000000      -0.063721073290       0.065515595268       0.006741525539
64 2       0.990240000000       7.413540000000       5.240510000000       0.003432693036       0.050039925971       0.015304328668
65 1       2.124360000000       2.147120000000       2.122950000000       0.126986946355      -0.004558381114      -0.110757161101
66 1       6.161950000000       6.244180000000       6.257490000000       0.068770549344      -0.021367147035      -0.036350531271
67 1       4.261420000000       8.326750000000       6.439310000000      -0.033507381241       0.140017262947       0.085748938329
68 1       4.315760000000       0.129390000000       2.092390000000       0.046442394889      -0.056827062231       0.030131166674
69 1       8.272130000000       6.378210000000       4.128180000000       0.070416708421      -0.031903533573       0.098580107965
70 1       0.029210000000       2.186260000000       4.280590000000       0.060100596793       0.022807692854       0.097124985974
71 1       6.207330000000       4.174610000000       8.362920000000       0.176444142814      -0.145277129212       0.053364387896
72 1       1.913160000000       4.448450000000       0.230160000000      -0.015352188510       0.183960465440      -0.018060964219
73 1       8.381360000000       4.361460000000       2.081220000000       0.114650830427       0.030982072337      -0.035887384382
74 1       8.136260000000       4.022730000000       6.525360000000      -0.046919036196      -0.164389388027      -0.003412764474
75 1       4.296100000000       2.110780000000       0.057510000000      -0.081464546450       0.014491027307      -0.048433638046
76 1       4.023780000000       6.394170000000       8.259820000000       0.011591354078       0.111962223308      -0.097203034851
77 1       2.115620000000       0.080490000000       4.178140000000       0.008613814131      -0.028850917564      -0.041626249767
78 1       6.157130000000       8.337850000000       4.098060000000      -0.004576286270       0.099482610151      -0.133504278211
79 1       2.104630000000       6.406740000000       6.367680000000      -0.084470927647      -0.007914524643      -0.070085077995
80 1       6.234240000000       2.126400000000       2.034650000000       0.061283883853       0.062960702171       0.063284582881
81 1       4.191170000000       4.131570000000       2.112740000000      -0.122281555898      -0.052695432469       0.035995999260
82 1       4.229230000000       4.337700000000       6.183420000000      -0.085105877895       0.009168525848       0.000130223089
83 1       8.191950000000       2.106120000000       8.378370000000       0.001692562644       0.042185739207       0.032159143801
84 1       0.043910000000       6.316390000000       0.088290000000       0.085416992123      -0.015292695090      -0.071574895898
85 1       8.251060000000       0.066600000000       6.314680000000       0.008629023309       0.061386156334       0.009714579123
86 1       8.255540000000       8.365220000000       2.100940000000      -0.060098297288       0.051534850013      -0.011230830345
87 1       4.246120000000       6.243900000000       4.241170000000      -0.120913511559       0.047082837671       0.116999379336
88 1       4.131440000000       2.173040000000       4.116760000000      -0.061612025617       0.021024419144       0.045085315052
89 1       6.264970000000       2.168200000000       6.364260000000      -0.032918795398      -0.037313072962      -0.027455747021
90 1       2.056880000000       6.346130000000       2.068130000000      -0.077302863313       0.012356818163       0.125620293455
91 1       2.265660000000       4.047370000000       3.960560000000       0.026571470021      -0.183862422036       0.028942969546
92 1       6.170980000000       4.329490000000       4.280730000000       0.036799673356       0.039903468677      -0.050867572202
93 1       6.396630000000       0.153320000000       0.113540000000       0.019558372136      -0.072833758907       0.144549143495
94 1       2.040150000000       8.343160000000       8.546050000000       0.044506658961       0.049779721708      -0.042783119642
95 1       6.334090000000       6.369600000000       2.162200000000      -0.067377404171      -0.066097950257      -0.033633682099
96 1       1.918240000000       2.172070000000       6.177140000000      -0.018762515025       0.026593909743       0.020773309494
97 1       2.019320000000       2.158800000000      10.565630000000      -0.035427445758       0.013558451335       0.026591991152
98 1       6.214530000000       6.132040000000      14.613700000000      -0.136519187712       0.015791793325       0.012978929131
99 1       4.116630000000       8.204000000000      14.826690000000       0.036160906434      -0.093032512228       0.142316490195
100 1       4.220360000000       8.221380000000      10.359830000000      -0.145206641718       0.035756887218      -0.076053906539
101 1       8.246420000000       6.299570000000      12.492590000000       0.038091886626      -0.042057755837      -0.029332195542
102 1       0.173520000000       1.802290000000      12.782610000000       0.194002129725      -0.047696688342       0.025299403373
103 1       6.557180000000       3.915360000000      16.541780000000       0.071822644902      -0.079633365378       0.020164242079
104 1       2.029740000000       4.322120000000       8.402670000000      -0.029907555282       0.005938124307      -0.054347945376
105 1       0.131700000000       4.352280000000      10.253420000000       0.207030764622       0.037673494051       0.036321851425
106 1       0.002450000000       4.026430000000      14.698480000000      -0.155008557604      -0.215571053427      -0.115583156761
107 1       4.162410000000       2.092720000000       8.237100000000      -0.030784308008      -0.058337005961       0.042777521638
108 1       4.132370000000       6.295300000000      16.661680000000      -0.054414369727      -0.109829770176      -0.074557661725
109 1       2.030150000000       8.349230000000      12.649100000000       0.009515976851      -0.011734627427      -0.004350619503
110 1       6.343320000000       8.229120000000      12.542860000000       0.031212013329       0.132013875421      -0.049381454338
111 1       2.105930000000       6.261910000000      14.528440000000       0.052996273086      -0.032514384175       0.038629408179
112 1       6.134830000000       2.003550000000      10.421460000000       0.010629791246       0.079223050749       0.088331058063
113 1       4.112660000000       4.247340000000      10.498880000000      -0.000959467034       0.026357856048      -0.051701901967
114 1       4.285500000000       4.138540000000      14.768670000000      -0.047768028169      -0.025089363083       0.003248989556
115 1       0.028100000000       2.036340000000      16.680770000000       0.033127702227       0.062756272718       0.009162753154
116 1       8.348390000000       6.305420000000       8.421550000000       0.129696028526      -0.180271967122      -0.038203770232
117 1       0.038850000000       8.276610000000      14.687340000000       0.246387909883       0.048702773104       0.020227951728
118 1       8.206240000000       8.261400000000      10.588410000000      -0.003364908980       0.097416618136       0.006338146416
119 1       4.262470000000       6.362100000000      12.735630000000      -0.129081924573      -0.030446086456       0.108152683968
120 1       4.157700000000       1.949120000000      12.637820000000       0.044691875212       0.015062582786       0.003530636240
121 1       6.385330000000       1.967380000000      14.717060000000       0.022641208334       0.073590068614      -0.022749888511
122 1       1.992360000000       6.214130000000      10.422050000000       0.065695408802       0.006377232535       0.041858496014
123 1       2.052130000000       4.011400000000      12.455910000000      -0.034993123897      -0.051061099785       0.051834913578
124 1       6.222850000000       4.206550000000      12.707280000000       0.014644254571      -0.089400866165      -0.092898313795
125 1       6.119690000000       0.109720000000       8.529360000000      -0.092178612541      -0.046768936032       0.102617045748
126 1       2.232170000000       0.048860000000      16.694940000000      -0.093127613599      -0.004889456643       0.026940414053
127 1       6.302680000000       6.332050000000      10.539550000000       0.041945647709      -0.048539832541      -0.014530423429
128 1       2.095170000000       1.881460000000      14.604660000000      -0.029600765924      -0.023638189105       0.006688300724
129 1       2.276750000000       2.007640000000      18.999610000000      -0.077859628367      -0.027520995655       0.099159115654
130 1       6.347550000000       6.320820000000      22.984540000000      -0.038576996486       0.089483355803       0.035650927467
131 1       4.333300000000       0.034570000000      23.034180000000       0.003827109198       0.045619255652       0.033173412273
132 1       4.380740000000       0.070280000000      18.820510000000      -0.049585918599      -0.078130168371      -0.134524100233
133 1       0.110280000000       6.352180000000      21.006350000000       0.103660807588       0.259940109542      -0.025882917280
134 1       0.111560000000       2.077490000000      21.041890000000      -0.043213151102       0.036704877734      -0.013280913407
135 1       6.404970000000       4.166830000000      25.084380000000      -0.011848386856      -0.044957582938       0.066891705109
136 1       2.105740000000       4.047840000000      16.763190000000       0.038974454513      -0.036285892757       0.050962831191
137 1       0.064890000000       4.254940000000      18.748280000000      -0.036026564890       0.057556132253      -0.019156455182
138 1       8.352540000000       4.153430000000      23.179750000000       0.064960505486       0.006554567932       0.028640896477
139 1       4.347140000000       1.944430000000      16.853250000000      -0.023528488292       0.059466356772       0.122299725476
140 1       4.159400000000       6.301970000000      25.079270000000      -0.100084201277      -0.031189796932      -0.015665552737
141 1       2.102710000000       0.143920000000      20.981520000000       0.037515856672       0.140705750919       0.004717931238
142 1       6.495580000000       0.011450000000      20.907520000000       0.049233320522      -0.083265395406      -0.176390258193
143 1       2.257680000000       6.322090000000      23.196070000000      -0.031962974475      -0.008702232538      -0.104350604353
144 1       6.309920000000       1.999500000000      18.801640000000      -0.088524650636       0.090734606355       0.037454465840
145 1       4.222340000000       4.127200000000      18.986600000000       0.015679911884       0.050291597390      -0.103732380062
146 1       4.465370000000       4.469890000000      22.815670000000       0.039834141300       0.120932576204       0.033275002946
147 1       8.325080000000       2.246510000000      25.131730000000       0.124573055091      -0.057153394124      -0.086489878380
148 1       0.027000000000       6.148060000000      16.870410000000       0.005713624514       0.056175501306       0.024727498957
149 1       8.315520000000       0.158340000000      22.987130000000      -0.004750560936      -0.068705315566       0.045749349476
150 1       0.059370000000       8.354550000000      18.966740000000      -0.028249027050      -0.082268659511      -0.055186459487
151 1       4.364730000000       6.363510000000      20.999140000000      -0.015860902967       0.022660906961      -0.084409574640
152 1       4.256250000000       2.203960000000      20.880120000000       0.092337261424       0.001838603406       0.023457758938
153 1       6.424600000000       2.245790000000      23.126230000000      -0.059976360054       0.079751123955       0.032461130435
154 1       2.155030000000       6.328170000000      18.917240000000      -0.067909099863       0.024964279528      -0.034280083516
155 1       2.225130000000       4.101050000000      21.056090000000       0.065258214153      -0.057979293162       0.008347433442
156 1       6.382780000000       4.299180000000      20.997400000000      -0.322255194223       0.201819232985       0.017039008390
157 1       6.257360000000       0.007200000000      16.857430000000      -0.032864876943      -0.079144565311      -0.014349213829
158 1       2.074900000000       0.015410000000       0.015800000000      -0.034170769255       0.005212064827       0.031394696560
159 1       6.619830000000       6.476310000000      19.082760000000       0.117518924770       0.044839042474       0.040463811910
160 1       2.063660000000       2.076210000000      22.985770000000       0.031134283279      -0.015157521325      -0.088898483212
