ITEM: TIMESTEP
0
ITEM: NUMBER OF ATOMS
80
ITEM: BOX BOUNDS pp pp pp
0.0000000000000000e+00 9.3356569989999993e+00
0.0000000000000000e+00 9.3356569989999993e+00
0.0000000000000000e+00 9.3356569989999993e+00
ITEM: ATOMS id type v_vir_xx v_vir_yy v_vir_zz v_vir_xy v_vir_xz v_vir_yz
1 2      -6.251627584095      -6.251628946523      -6.251634834811      -1.222630647711       1.222626689216       1.222630651041
2 2      -5.407709991535      -5.510602048711      -5.552176986878       0.000001215617       0.532766231327       0.000015490988
3 2      -5.552266906460      -5.407755649125      -5.510625249449       0.532756540500      -0.000020120439      -0.000004586358
4 2      -5.552218760944      -5.407728660150      -5.510611798249      -0.532751030664      -0.000006315456      -0.000005516737
5 2      -5.510625249449      -5.552266906460      -5.407755649125      -0.000020120439      -0.000004586358       0.532756540500
6 2      -5.510591309297      -5.552219190218      -5.407733257510       0.000010942153       0.000002145260      -0.532769873603
7 2      -5.407728660150      -5.510611798249      -5.552218760944      -0.000005516737      -0.532751030664      -0.000006315456
8 2      -6.251634834811      -6.251627584095      -6.251628946523       1.222626689216       1.222630651041      -1.222630647711
9 2      -6.251625854867      -6.251625854867      -6.251625854867      -1.222630156900      -1.222630156900      -1.222630156900
10 2      -6.251628946523      -6.251634834811      -6.251627584095       1.222630651041      -1.222630647711       1.222626689216
11 2      -5.407733257510      -5.510591309297      -5.552219190218       0.000002145260      -0.532769873603       0.000010942153
12 2      -5.510611798249      -5.552218760944      -5.407728660150      -0.000006315456      -0.000005516737      -0.532751030664
13 2      -5.510602048711      -5.552176986878      -5.407709991535       0.000015490988       0.000001215617       0.532766231327
14 2      -5.552219190218      -5.407733257510      -5.510591309297      -0.532769873603       0.000010942153       0.000002145260
15 2      -5.552176986878      -5.407709991535      -5.510602048711       0.532766231327       0.000015490988       0.000001215617
16 2      -5.407755649125      -5.510625249449      -5.552266906460      -0.000004586358       0.532756540500      -0.000020120439
17 2      -6.251637948593      -6.251636584858      -6.251630681867      -1.222627184514       1.222631142246       1.222627180081
18 2      -5.407750841418      -5.510673803629      -5.552246472696       0.000002939620       0.532742634073       0.000016831315
19 2      -5.552197322854      -5.407716709066      -5.510527928613       0.532779564438      -0.000012205483       0.000000425826
20 2      -5.552204693149      -5.407732169348      -5.510664054226      -0.532757839492      -0.000014232203      -0.000000503580
21 2      -5.510527928613      -5.552197322854      -5.407716709066      -0.000012205483       0.000000425826       0.532779564438
22 2      -5.510561868688      -5.552245033555      -5.407739097450       0.000009601127       0.000003870079      -0.532766235967
23 2      -5.407732169348      -5.510664054226      -5.552204693149      -0.000000503580      -0.532757839492      -0.000014232203
24 2      -6.251630681867      -6.251637948593      -6.251636584858       1.222631142246       1.222627180081      -1.222627184514
25 2      -6.251639692227      -6.251639692227      -6.251639692227      -1.222627673684      -1.222627673684      -1.222627673684
26 2      -6.251636584858      -6.251630681867      -6.251637948593       1.222627180081      -1.222627184514       1.222631142246
27 2      -5.407739097450      -5.510561868688      -5.552245033555       0.000003870079      -0.532766235967       0.000009601127
28 2      -5.510664054226      -5.552204693149      -5.407732169348      -0.000014232203      -0.000000503580      -0.532757839492
29 2      -5.510673803629      -5.552246472696      -5.407750841418       0.000016831315       0.000002939620       0.532742634073
30 2      -5.552245033555      -5.407739097450      -5.510561868688      -0.532766235967       0.000009601127       0.000003870079
31 2      -5.552246472696      -5.407750841418      -5.510673803629       0.532742634073       0.000016831315       0.000002939620
32 2      -5.407716709066      -5.510527928613      -5.552197322854       0.000000425826       0.532779564438      -0.000012205483
33 1       3.464297690682       3.458670898247       2.961482584701      -0.432059229767       0.728968017560       0.167254697564
34 1       3.464294002730       3.458675702513       2.961496234061       0.432082132832      -0.728958055635       0.167249270465
35 1       3.458694177194       2.961501773239       3.464306898781      -0.167254079299      -0.432054039641      -0.728962144221
36 1       3.458690666465       2.961517918375       3.464316249241       0.167249799416      -0.432069556209       0.728953982898
37 1       3.458683097481       2.961517010635       3.464309597649      -0.167254071295       0.432063840976       0.728952693943
38 1       3.458682479847       2.961502840490       3.464318586519       0.167249796984       0.432052086837      -0.728965771285
39 1       3.464306898781       3.458694177194       2.961501773239      -0.432054039641      -0.728962144221      -0.167254079299
40 1       3.464309597649       3.458683097481       2.961517010635       0.432063840976       0.728952693943      -0.167254071295
41 1       2.961502840490       3.464318586519       3.458682479847      -0.728965771285       0.167249796984       0.432052086837
42 1       2.961480347840       3.464307243295       3.458673011077       0.728969637054      -0.167244800191       0.432068496554
43 1       2.961501773239       3.464306898781       3.458694177194      -0.728962144221      -0.167254079299      -0.432054039641
44 1       2.961482584701       3.464297690682       3.458670898247       0.728968017560       0.167254697564      -0.432059229767
45 1       2.961497012628       3.464311290083       3.458665314578      -0.728958358631      -0.167250222320      -0.432072866101
46 1       2.961517010635       3.464309597649       3.458683097481       0.728952693943      -0.167254071295       0.432063840976
47 1       2.961496234061       3.464294002730       3.458675702513      -0.728958055635       0.167249270465       0.432082132832
48 1       2.961517918375       3.464316249241       3.458690666465       0.728953982898       0.167249799416      -0.432069556209
49 1       3.464307243295       3.458673011077       2.961480347840       0.432068496554       0.728969637054      -0.167244800191
50 1       3.464311290083       3.458665314578       2.961497012628      -0.432072866101      -0.728958358631      -0.167250222320
51 1       3.458673011077       2.961480347840       3.464307243295      -0.167244800191       0.432068496554       0.728969637054
52 1       3.458675702513       2.961496234061       3.464294002730       0.167249270465       0.432082132832      -0.728958055635
53 1       3.458670898247       2.961482584701       3.464297690682       0.167254697564      -0.432059229767       0.728968017560
54 1       3.458665314578       2.961497012628       3.464311290083      -0.167250222320      -0.432072866101      -0.728958358631
55 1       3.464316249241       3.458690666465       2.961517918375      -0.432069556209       0.728953982898       0.167249799416
56 1       3.464318586519       3.458682479847       2.961502840490       0.432052086837      -0.728965771285       0.167249796984
57 1       3.464313323400       3.458671796563       2.961497059125      -0.432062283725       0.728961201202       0.167247758529
58 1       3.464316002972       3.458681812872       2.961489623257       0.432082226245      -0.728955657736       0.167245498642
59 1       3.458685970311       2.961509380925       3.464310999254      -0.167247072166      -0.432055856671      -0.728965988223
60 1       3.458688418170       2.961501037349       3.464307032136       0.167249084955      -0.432070081936       0.728959156674
61 1       3.458680103623       2.961503534058       3.464320067201      -0.167250231543       0.432062698135       0.728960956902
62 1       3.458681783031       2.961509899954       3.464305695040       0.167256773259       0.432044710063      -0.728962872389
63 1       3.464310999254       3.458685970311       2.961509380925      -0.432055856671      -0.728965988223      -0.167247072166
64 1       3.464320067201       3.458680103623       2.961503534058       0.432062698135       0.728960956902      -0.167250231543
65 1       2.961509899954       3.464305695040       3.458681783031      -0.728962872389       0.167256773259       0.432044710063
66 1       2.961497710347       3.464297383135       3.458685567495       0.728959071477      -0.167252235799       0.432066119641
67 1       2.961509380925       3.464310999254       3.458685970311      -0.728965988223      -0.167247072166      -0.432055856671
68 1       2.961497059125       3.464313323400       3.458671796563       0.728961201202       0.167247758529      -0.432062283725
69 1       2.961490433770       3.464305102358       3.458676318135      -0.728955865284      -0.167249967020      -0.432078390844
70 1       2.961503534058       3.464320067201       3.458680103623       0.728960956902      -0.167250231543       0.432062698135
71 1       2.961489623257       3.464316002972       3.458681812872      -0.728955657736       0.167245498642       0.432082226245
72 1       2.961501037349       3.464307032136       3.458688418170       0.728959156674       0.167249084955      -0.432070081936
73 1       3.464297383135       3.458685567495       2.961497710347       0.432066119641       0.728959071477      -0.167252235799
74 1       3.464305102358       3.458676318135       2.961490433770      -0.432078390844      -0.728955865284      -0.167249967020
75 1       3.458685567495       2.961497710347       3.464297383135      -0.167252235799       0.432066119641       0.728959071477
76 1       3.458681812872       2.961489623257       3.464316002972       0.167245498642       0.432082226245      -0.728955657736
77 1       3.458671796563       2.961497059125       3.464313323400       0.167247758529      -0.432062283725       0.728961201202
78 1       3.458676318135       2.961490433770       3.464305102358      -0.167249967020      -0.432078390844      -0.728955865284
79 1       3.464307032136       3.458688418170       2.961501037349      -0.432070081936       0.728959156674       0.167249084955
80 1       3.464305695040       3.458681783031       2.961509899954       0.432044710063      -0.728962872389       0.167256773259
