ITEM: TIMESTEP
0
ITEM: NUMBER OF ATOMS
80
ITEM: BOX BOUNDS pp pp pp
0.0000000000000000e+00 9.3356569989999993e+00
0.0000000000000000e+00 9.3356569989999993e+00
0.0000000000000000e+00 9.3356569989999993e+00
ITEM: ATOMS id type c_pe_atom
1 2      -5.573490368731
2 2      -5.279092666716
3 2      -5.279056357615
4 2      -5.279075053744
5 2      -5.279056357615
6 2      -5.279079873925
7 2      -5.279075053744
8 2      -5.573490368731
9 2      -5.573492800213
10 2      -5.573490368731
11 2      -5.279079873925
12 2      -5.279075053744
13 2      -5.279092666716
14 2      -5.279079873925
15 2      -5.279092666716
16 2      -5.279056357615
17 2      -5.573487935949
18 2      -5.279059630670
19 2      -5.279095249382
20 2      -5.279077243595
21 2      -5.279095249382
22 2      -5.279071733073
23 2      -5.279077243595
24 2      -5.573487935949
25 2      -5.573485502192
26 2      -5.573487935949
27 2      -5.279071733073
28 2      -5.279077243595
29 2      -5.279059630670
30 2      -5.279071733073
31 2      -5.279059630670
32 2      -5.279095249382
33 1      -6.323777381538
34 1      -6.323871514688
35 1      -6.323803656705
36 1      -6.323840897569
37 1      -6.323791209291
38 1      -6.323758909855
39 1      -6.323803656705
40 1      -6.323791209291
41 1      -6.323758909855
42 1      -6.323842510372
43 1      -6.323803656705
44 1      -6.323777381538
45 1      -6.323817915516
46 1      -6.323791209291
47 1      -6.323871514688
48 1      -6.323840897569
49 1      -6.323842510372
50 1      -6.323817915516
51 1      -6.323842510372
52 1      -6.323871514688
53 1      -6.323777381538
54 1      -6.323817915516
55 1      -6.323840897569
56 1      -6.323758909855
57 1      -6.323785578271
58 1      -6.323895885285
59 1      -6.323781559044
60 1      -6.323842179318
61 1      -6.323785285151
62 1      -6.323719721170
63 1      -6.323781559044
64 1      -6.323785285151
65 1      -6.323719721170
66 1      -6.323827030106
67 1      -6.323781559044
68 1      -6.323785578271
69 1      -6.323842906042
70 1      -6.323785285151
71 1      -6.323895885285
72 1      -6.323842179318
73 1      -6.323827030106
74 1      -6.323842906042
75 1      -6.323827030106
76 1      -6.323895885285
77 1      -6.323785578271
78 1      -6.323842906042
79 1      -6.323842179318
80 1      -6.323719721170
