ITEM: TIMESTEP
0
ITEM: NUMBER OF ATOMS
160
ITEM: BOX BOUNDS pp pp pp
0.0000000000000000e+00 8.3025822369999993e+00
0.0000000000000000e+00 8.3025822369999993e+00
0.0000000000000000e+00 2.4907746711000001e+01
ITEM: ATOMS id type v_vir_xx v_vir_yy v_vir_zz v_vir_xy v_vir_xz v_vir_yz
1 2      -3.802001027691      -1.665564296648      -1.751340669432      -0.008041708273      -0.171223503511      -0.078223577475
2 2      -4.160690231519      -3.264867213943      -3.726287117885      -0.241726219725       0.531770668734       0.067927999096
3 2      -3.033972038572      -4.151231025933      -3.514446696092       0.295111187273       0.471120501824      -0.041743723120
4 2      -1.454256966633      -3.550326987146      -3.555599000728       0.373239179676      -0.228976914066       0.522696329982
5 2      -3.697538337510      -1.682420843435      -3.510939857146       0.160122379092      -0.018519722525       0.046167364477
6 2      -3.782417663971      -1.768520493250      -2.279072419895       0.237875349819       0.018932093787      -0.432561882711
7 2      -3.160946400525      -4.379703401301      -1.837317323623      -0.613228382982       0.030171509951      -0.028093976425
8 2      -1.248729706982      -4.688400154815      -3.651768767309       0.078944855602      -0.240695072582      -0.290209356665
9 2      -4.498623152064      -3.280189862337      -1.784717090795      -0.600742235522       0.089768510931      -0.352751904311
10 2      -3.317560509795      -4.158194099093      -3.603075067864       0.301107459912       0.081553265658      -0.300705402832
11 2      -4.764114957942      -1.535029832443      -3.822789969684      -0.036363026906       0.363850945274      -0.229659562390
12 2      -1.492635410949      -3.564992633378      -3.542064238744      -0.020583531433       0.512775201186       0.473185172940
13 2      -1.874677259751      -3.748171055118      -2.469725170385      -0.355350906532       0.706574078485      -0.088929468979
14 2      -3.598048727283      -1.657478284634      -3.583067241603       0.186713456348      -0.028830869106       0.013706980218
15 2      -4.237734614638      -2.999172197541      -3.488162677836       0.304104252649       0.175099458289       0.371114153065
16 2      -0.977127509636      -4.530477511803      -3.879062540815      -0.059696454568      -0.284797716401      -0.050934021569
17 2      -4.098914557622      -3.369845756942      -1.914714565897       0.531173279592       0.036627141488       0.177666097812
18 2      -1.725054331996      -3.819955235326      -2.236603757342       0.064815587536      -0.304845659385      -0.301991961205
19 2      -3.187073696650      -4.380084308587      -1.832270790927      -0.614435752554       0.072058611602      -0.006758415790
20 2      -4.508441876150      -1.012085718538      -3.863493935830       0.142148333284       0.291033234701       0.585397094480
21 2      -2.678905996381      -2.778688409489      -0.246887929265      -0.720914451027       0.134599994478       0.103868090507
22 2      -2.230609881763      -2.364382987111      -4.224037789944      -0.650406905664      -0.192088662472       0.511029192013
23 2      -3.878691534782      -0.748227244054      -0.680508031889      -0.350296013458       0.544229636200       0.502047671220
24 2      -3.008136398030      -3.799384423076      -3.356978835253      -0.818866443167       1.399697282036       1.399194190681
25 2      -3.849490161701      -1.594973631781      -2.153394826996      -0.519806059198       0.546733710066       1.043166159268
26 2      -2.515753601225      -0.126344232460      -2.269430677180       0.437849707838       0.317090483984      -0.746337144360
27 2      -2.289161485696       0.288534131474      -2.583318018950      -0.441127136634       0.371494315310       0.270113780897
28 2      -3.579087226562      -3.389896273357      -3.509784243986       0.840790177054       1.449808652359      -1.476292208616
29 2      -0.269209201842      -2.259707293644      -2.114928586221       0.306886738725       0.562501003153      -0.554545694422
30 2      -0.816844179817      -3.921634731364      -0.671201235881       0.891444651688       0.339235540184       0.769388874127
31 2      -1.921750651925      -2.333014705209      -4.146287887098       0.358110633277       0.639983125875       0.335817059554
32 2      -1.959396823881      -1.942266067936      -4.383987255432       0.480238488442      -0.058073627886       0.122009943170
33 2      -3.390623906779      -3.382019802790      -4.028991794841       0.817237064005      -0.141144712304       1.216758415355
34 2      -3.623687879024      -3.217442685342      -4.299047981850      -0.837709953488       0.335131696846       1.413394990596
35 2      -2.452278875034      -1.948693719668      -3.787356594359       0.451580713016       0.624286980987       0.542081486850
36 2      -3.728413928746      -2.019928283633      -2.227772806568       1.229128994017      -0.443814534007       0.076899563747
37 2      -2.428823547202      -2.778483851729      -0.512027270708       0.149107626304       0.920256812306       0.267377742621
38 2      -3.059062616369      -3.500249676150      -3.712206128844       0.727746728400      -0.685792172274       0.236096908762
39 2      -2.362461238813       0.147328330978      -2.636623995866       0.401490828604       0.106260347567      -0.698880529414
40 2      -0.031658567949      -2.528720702888      -2.622188507954      -0.394261460652      -0.260401160423      -0.140491111996
41 2      -3.431391095703      -3.170814794745      -2.595175595741       0.218562969012      -1.571212743744       1.500428702014
42 2      -2.009210269024      -3.449835902299      -1.130757359665       0.172474701579      -1.113144477550      -0.615881684387
43 2      -1.922605864150      -2.184160988744      -4.243679870724      -0.400767161718       0.626992585714      -0.138634844282
44 2      -3.175278645313      -3.715020999550      -3.836956055017       0.827861234562      -0.774567429157       0.315831721230
45 2      -3.635418213688      -3.155717917467      -3.978959097621       0.762744016957       0.467614224514      -0.934179327054
46 2      -3.475542910945      -3.324653880380      -3.494611630317      -0.678039385398      -0.061554381803      -0.915098418141
47 2      -3.197165645533      -3.596225752912      -3.660576516433      -0.779548173176      -0.902309908372      -0.123964908278
48 2      -1.870686765659      -3.470452110966      -1.386368984547      -0.159598915243      -1.096297290530       0.816060050908
49 2      -3.167301072146      -3.630758737953      -3.817493741467      -0.831746778394      -0.975379813972       0.000084437208
50 2      -0.244713970587      -2.490446117072      -2.557771625608      -0.362664356511       0.785591847342       0.143365004967
51 2       0.023470080633      -2.520607993639      -2.467393634833       0.320105797427      -0.358809692202      -0.047403815908
52 2      -3.481789633845      -2.108386448663      -1.981657291035       0.379501423730       0.559381611277      -0.860118490805
53 2      -2.416976955258      -3.535208662630      -2.006473908894      -1.037319490349       0.191002624109      -0.685817213231
54 2      -3.484468610107      -2.108879401469      -1.915960000939       0.428269873167       0.660105147604      -0.836855006992
55 2      -2.201835632996      -2.002178587085      -3.743354397828      -0.445473551500       0.354807046510      -0.057961659608
56 2      -3.286751195743      -3.303568453241      -2.581501423680      -0.193081220886      -1.469089111000      -1.696103462055
57 2      -1.520299593883      -3.821822267243      -2.127546945585      -0.512832977506       1.153692525166       0.347665387616
58 2      -2.423047784526      -2.012825642052      -4.249597809460       0.465108716521       0.562404917896       0.477027988212
59 2      -2.185175441898      -2.004428060289      -3.812948378700      -0.504314804998       0.523697117513      -0.014374397381
60 2      -2.258108319539       0.202841469982      -2.732753918347      -0.439128317199       0.553145781501       0.231127513982
61 2      -0.209733348608      -1.898645045365      -1.709292467442      -0.033460472117       0.153836005163       0.923866910030
62 2      -1.814610052043      -0.488858980816      -1.817606019130      -0.055454603231       1.030500922071       0.139714994570
63 2      -0.440720869787      -1.736084601386      -1.729014652951       0.164313988634       0.139230268814      -1.108886591998
64 2      -1.800545277448      -0.341134412298      -1.746110579470      -0.025408268609       1.036575228444      -0.000129465449
65 1       2.273186540197       1.818947352541       1.671588964077       0.290030552611       0.134001248169      -0.013897697145
66 1       1.966125531970       1.913305700918       2.425966473228       0.230853912620       0.218769997015       0.222282495319
67 1      -0.194384051029       1.097682943297       1.761154820256      -0.261291842027      -0.212337936542      -0.556120490829
68 1       0.864679505201       1.118088438623      -0.411937753702       0.345559272181      -0.057679111178       0.027257074806
69 1       1.362818541378       0.392072619330       1.329490990083      -0.147335665828       0.359541902386      -0.244569013609
70 1       1.242566931978      -0.001903821999       1.021240801758      -0.153962047722       0.369892744001      -0.256039371497
71 1       1.847414570284       1.900983013790       1.275867696710      -0.462657159689      -0.091974206973       0.313382054578
72 1       0.817767314572       1.156006106088       0.949010309513      -0.063707040134       0.002771874321       0.027232942642
73 1       2.014343000083       1.771900693225       1.433856430363       0.423199305639      -0.382532023301      -0.298656614053
74 1       0.599893684972       1.179057079614       0.954480550677       0.207061271784       0.084604899221      -0.090228929179
75 1       1.436780136747       0.403470684311       1.388069120668      -0.177670928161       0.466907779641      -0.243692693622
76 1       2.038711123165       1.855235464746       1.607696028431      -0.554039599950       0.516666023995      -0.616596784558
77 1       0.594760224019       1.312548494508       0.259827642355       0.006321539878      -0.243644714060      -0.029447079431
78 1      -0.441718792694       1.206132325826       1.276222231288       0.045353243754      -0.266270830756       0.440147289266
79 1       1.446930681339       0.492869966517       1.430847770123       0.194180616813       0.407333832449       0.144464635905
80 1       1.992937185438       1.918729898525       1.976935610940       0.588069080884       0.574406459442       0.710060033052
81 1       2.015236306025       1.786342168330       1.445694693859       0.424128197297      -0.403744842393      -0.304301296292
82 1       2.093725225402       1.886200778340       1.586701151651       0.228386383460      -0.317806090052      -0.245634168979
83 1       2.093486632420       1.943753893186       1.790247355599      -0.320294573218       0.119461774583      -0.270461539149
84 1       1.964884054720       1.704664512912       2.629046137326      -0.012637824351       0.301373051074      -0.439727781265
85 1       0.393693972250       1.085531889929       0.591539934390      -0.071538237770      -0.358634917462       0.117222983670
86 1       0.914689327230       1.172344139867      -0.298796739365       0.348059280765      -0.014212325035      -0.008217368868
87 1       2.115375938161       2.163507113174       2.219602801713      -0.263811314561       0.299685624195      -0.226866311936
88 1       1.947223138455       1.762968399391       2.646523483460      -0.024506271620       0.320566242877      -0.527924620964
89 1       1.674267552258       2.013591502666       2.499978386018      -0.031739224200       0.324932319304       0.530437275186
90 1       2.309496968277       1.788090424809       1.664643466384       0.282449447587       0.118628487214      -0.026445148166
91 1       0.692947341427       1.113862501847       0.926659469331      -0.071637166519       0.025828441400      -0.019939100917
92 1       1.827320001508       1.877792646770       2.070115220273      -0.142808135176      -0.354878738111       0.404988708748
93 1      -0.501358164439       1.197813604685       1.292497881974       0.100507901104      -0.133244718794       0.392660428692
94 1       1.025288648209       0.947635614463      -0.041708735348      -0.319016305288      -0.296452953169      -0.211787948413
95 1       1.984527267349       1.961577816544       1.992841511899       0.612471462247       0.570297449965       0.733705242961
96 1       1.398582820250       0.447766615393       1.054028440606       0.138569260269       0.219030415890       0.109012723128
97 1       0.349567057311       1.340956992288       0.923854406058       0.161974924985       0.275337184817       0.244505840110
98 1       1.806120386297       1.810959260574       1.691278339576       0.502982119883       0.613353770179       0.543013387105
99 1       2.131917499689       1.723644505677       1.495803904051       0.491806782359      -0.725974456917      -0.334326954846
100 1       0.966064736639      -0.149775290282       1.701547871049      -0.144946892838      -0.526846032194      -0.324280771211
101 1       2.030981763986       2.242762451521       1.909377611012      -0.284292402491       0.310587734238      -0.463619996883
102 1       1.140721834664       0.564327678792       0.499968511007      -0.289084205783       0.216357231094      -0.143363164810
103 1       0.963168993030       0.541848489958       1.093667068679      -0.011924347944      -0.149983121869       0.008513512215
104 1       1.936999580068       1.983442452530       1.753410734346      -0.208335716133      -0.221367490470       0.095636107492
105 1       1.297922171457       0.565463641591       1.019323906582       0.128346130314      -0.103605931636       0.063472993380
106 1       1.577852102941       2.124669540893       1.758119398037       0.291515168996      -0.082116975710      -0.288493146300
107 1       0.994337638994       1.177946901131       0.034213107095      -0.321899562671       0.042737149867      -0.361641914312
108 1       0.512430286028       1.315526115006       1.835383694614      -0.146011814018       0.171151783525      -0.463803677002
109 1       1.960559270260       1.700968913410       2.487606395266       0.089723505296      -0.376661359180       0.228620799349
110 1       1.837609422894       1.810057709446       2.319631511905      -0.135867334278      -0.114139428240       0.046817326886
111 1       1.083708061855       1.013168573482       0.110658481502       0.296900749685       0.093740380654       0.287733771294
112 1       0.409243759393       1.566116449586       1.407814744916       0.226752117707       0.234187010797       0.443482891492
113 1       1.133988072810       0.425689186257       0.792924612855      -0.121900770829       0.203570603839      -0.374702430023
114 1       1.086857124470       1.132590818871      -0.104360427790       0.244926604260       0.328921024456      -0.184193956173
115 1       1.971646920164       1.931296196164       2.475398194045      -0.101519498181       0.498348577597      -0.354804828672
116 1       1.948445668737       1.973873180339       1.420408788305      -0.509020476259       0.327526856817      -0.145077216626
117 1       1.699827396797       1.787449341079       1.699267528888       0.548295855388      -0.386605753150      -0.304042637433
118 1       1.962925609186       2.145536477146       1.738101429539       0.163849123230      -0.224992465122      -0.331321015574
119 1       0.986062916354      -0.226083034310       1.705820978239       0.227272816862       0.576595782306      -0.316659385012
120 1       1.299052440693       0.595643662551       0.481528236434       0.006273952183       0.017942960207      -0.361866386612
121 1       1.988344799248       2.082258867300       1.573104554622       0.533774413785       0.294392176812       0.253402655047
122 1       2.116298357173       1.736053051281       2.561275724042      -0.073084427756       0.581127038464       0.313606183598
123 1       0.283333406040       1.387283194263       0.819882178813      -0.120697544431      -0.102328064906       0.244235815109
124 1       0.557875978580       1.526369523868       1.834993465862      -0.122104856132      -0.066608809565       0.296063630502
125 1       1.757053523974       2.040623608301       1.520219422669      -0.526839172148      -0.571222705043       0.496580594967
126 1       1.250595309768      -0.391380959321       1.252741253665       0.099017711641      -0.415824472946       0.136554889991
127 1       1.885775925705       2.032544132555       2.523666144327       0.197253084320       0.198774367771       0.163769532389
128 1       2.084808056322       1.883106410019       1.839815080796       0.393174879078       0.154675794616       0.093466686756
129 1       1.207189073423      -0.552146645261       1.416678515528      -0.104518957160       0.447775450614       0.106407205448
130 1       1.835465835901       2.009722734421       2.436935884287       0.087687850715       0.222423569699       0.536591920594
131 1       0.382586032029       1.416320044475       0.608813287473      -0.030653265675      -0.406485064335       0.041329871478
132 1       2.118458919287       2.114585641117       2.059264151699       0.148303526256      -0.112257309674       0.002738737801
133 1       1.683914356652       1.985014927245       2.086871713527      -0.333905350459       0.336090860114      -0.234338870356
134 1       1.797879900119       2.071360868486       2.060271788538      -0.577905782103       0.477141321580      -0.814442253516
135 1       1.804889005707       1.866524549931       2.164737371893      -0.190192740878      -0.346650644872       0.424914188519
136 1       1.352171674606       0.550484318672       0.476507031930      -0.024281568856       0.186466460428       0.439624642147
137 1      -0.041946358447       1.225528220307       1.051487876568       0.176635636438      -0.171026826684      -0.273705763557
138 1       2.019545605213       1.976243454736       1.869453058130       0.282739189655      -0.342442302743      -0.383735324027
139 1       2.138159563200       2.098340416874       2.194256474863      -0.203298107772       0.254720450050      -0.037145811234
140 1       1.305508839778       0.014013709989       1.154413556120      -0.173187930723       0.324540196185      -0.234947115649
141 1       1.043313018188       1.100994445971      -0.187711373473      -0.355821371607      -0.220377081460      -0.205774009966
142 1       1.647374437593       2.127917698726       1.410176276246      -0.454061706601      -0.264741934075       0.372239057871
143 1       1.477563028177       0.219581908135       0.839012052513       0.212100848735       0.330305265649       0.165728775456
144 1       2.056264042157       1.999896142478       2.304117696327       0.295918553238       0.482282668269       0.433466949098
145 1       0.467758906072       1.453594840761       1.976628015658       0.211699401600      -0.086472245581      -0.246084310985
146 1       0.377150409025       1.060289212763       1.096568250248       0.047450391867       0.060509611808      -0.026003467328
147 1       2.222414894203       2.163527925639       2.307872438152      -0.278691867385       0.299324019549      -0.242768527399
148 1       0.087785180178       1.294448296656       1.112434307527      -0.110174507540       0.250527249175      -0.247058291648
149 1      -0.457636933893       1.238200583751       1.052573417941      -0.161887124807      -0.136793830725      -0.459988070964
150 1       1.670625719514       1.960112542998       2.440464592962       0.032425640898      -0.333123195044      -0.248409203474
151 1       2.232824823716       1.990994834956       1.785533630782      -0.182522896982       0.021214298025      -0.024789423641
152 1       2.081563262590       2.058459572958       1.705937470417      -0.548999494500       0.592744389548      -0.360113868822
153 1       1.945912439122       1.783825979363       2.320781279098       0.163654971808       0.198533988690       0.278390476524
154 1       1.297877089324       0.703066056270       0.281564055218       0.115436888195       0.074166229389       0.441798283923
155 1       1.154540717190       0.809496976826      -0.377523710571      -0.290968883303      -0.066035561495       0.096067898452
156 1       1.727972000571       1.852052672515       1.440019712343      -0.478216615181      -0.201038193821       0.522808255505
157 1       1.946634783775       1.935421497990       2.193988809863      -0.191134471401      -0.357016412111       0.305851480541
158 1       0.647715944449       1.322129471519       0.394456080486      -0.049255326571      -0.345540276582      -0.026612120763
159 1       1.336797249232       0.742797362587       0.604324186656       0.135127491780       0.167449464140       0.187061652556
160 1       1.532287516289       0.562628935981       1.736321325444       0.189390306544       0.237791592183       0.314284327514
