40
Config_type=bulk_kappa_phase Weight=1.0 Lattice="8.784526932 0.000000000 0.000000000 0.000000000 5.115505794 0.000000000 0.000000000 0.000000000 9.399701939" Energy=-340.51264080 Virial="2.94464 -0.00100 0.00140 -0.00100 3.07550 0.01640 0.00140 0.01640 2.84828" pbc="T T T" Properties=species:S:1:pos:R:3:forces:R:3
Ga	      1.37824      1.58365      8.34499        -0.001237     -0.006540      0.007177
Ga	      3.12288      4.14140      8.34499        -0.001586     -0.006916      0.007335
Ga	      5.78500      0.90286      7.50758        -0.006741      0.011029     -0.009354
Ga	      7.50063      3.46062      7.50758         0.005994      0.010981     -0.009633
Ga	      4.73081      3.46467      5.60445        -0.003942     -0.001429     -0.001588
Ga	      1.47494      3.51149      5.72915        -0.008279      0.012485     -0.010688
Ga	      3.02616      0.95374      5.72915         0.008437      0.011383     -0.011233
Ga	      8.55483      0.90692      5.60445         0.004097     -0.002641     -0.002032
Ga	      1.39265      1.65440      2.80748        -0.006987     -0.010576     -0.004611
Ga	      3.10847      4.21215      2.80749         0.006300     -0.009502     -0.005408
Ga	      5.76951      0.97492      3.64516        -0.002612      0.005346      0.007162
Ga	      7.51612      3.53267      3.64516         0.000259      0.008667      0.008673
Ga	      4.16362      1.65129      0.90488         0.001004      0.002077     -0.003361
Ga	      5.86707      4.16180      1.02911        -0.010181     -0.013424     -0.013766
Ga	      7.41857      1.60405      1.02910         0.010506     -0.012923     -0.013768
Ga	      0.33749      4.20905      0.90488        -0.002149      0.001797     -0.000492
O	      7.33549      1.78001      4.43118         0.002824     -0.004791      0.004368
O	      0.03926      0.77783      0.04394        -0.011468      0.000872     -0.009292
O	      7.36794      0.09353      6.94630         0.002572      0.012504      0.000428
O	      7.29412      4.97183      2.13209         0.012289      0.003915      0.015419
O	      5.95015      4.33776      4.43118        -0.002222     -0.004796      0.004287
O	      7.44644      3.34663      9.38288        -0.004438     -0.002054      0.004414
O	      5.91769      2.65128      6.94631        -0.001918      0.011578     -0.000060
O	      5.99152      2.41408      2.13210        -0.011369      0.004459      0.014931
O	      1.44642      1.76862      4.68315         0.005612      0.002715      0.002080
O	      2.94405      0.77850      9.13119         0.002478      0.004516      0.005878
O	      1.60055      0.14255      6.83303        -0.010494     -0.003351      0.012899
O	      1.52549      5.02148      2.24648        -0.001673     -0.010937      0.001300
O	      0.07023      4.33839      4.74389         0.009425     -0.002203     -0.011087
O	      1.55706      3.33625      9.13119        -0.003432      0.004451      0.006048
O	      0.15342      2.43474      6.89694         0.006276      0.000468      0.000632
O	      8.73955      2.68037      2.19735        -0.004813     -0.000767      0.001202
O	      4.43088      1.78063      4.74389        -0.009199     -0.002097     -0.010686
O	      5.83920      0.78888      9.38289         0.004596     -0.001826      0.004003
O	      4.34768      4.99249      6.89693        -0.005252      0.000273      0.000307
O	      4.54609      0.12262      2.19735         0.005339     -0.001518      0.001641
O	      3.05469      4.32637      4.68315        -0.004711      0.002721      0.002321
O	      4.46185      3.33558      0.04394         0.012572      0.000545     -0.009499
O	      2.90055      2.70030      6.83304         0.011350     -0.003091      0.013050
O	      2.97563      2.46373      2.24648         0.002775     -0.011398      0.001005
