# LAMMPS data file converted from structure.xyz
160 atoms
2 atom types
0.000000000000 8.466941973000 xlo xhi
0.000000000000 8.466941973000 ylo yhi
0.000000000000 25.400825917000 zlo zhi

Masses

1 15.9994  # O
2 69.7230  # Ga

Atoms  # atomic

1 2 1.227090000000 5.256190000000 22.343100000000
2 2 5.261500000000 0.856160000000 13.825460000000
3 2 7.240000000000 7.486990000000 7.469540000000
4 2 7.369600000000 7.213900000000 15.943870000000
5 2 5.285540000000 5.304360000000 0.992380000000
6 2 3.064620000000 3.238650000000 7.287660000000
7 2 0.964860000000 1.058120000000 1.096520000000
8 2 5.228100000000 1.036870000000 5.299740000000
9 2 3.218670000000 3.001420000000 15.833660000000
10 2 5.442980000000 1.131930000000 22.157040000000
11 2 3.177730000000 7.335650000000 11.643550000000
12 2 7.507430000000 3.235870000000 20.032360000000
13 2 1.032740000000 5.155620000000 13.634880000000
14 2 7.406800000000 3.259750000000 3.239860000000
15 2 5.153480000000 5.386520000000 9.479900000000
16 2 7.443320000000 7.526350000000 24.368700000000
17 2 3.227730000000 7.534200000000 20.145570000000
18 2 0.925900000000 1.085500000000 9.633270000000
19 2 3.260930000000 7.506810000000 3.139220000000
20 2 1.192720000000 1.042600000000 18.018200000000
21 2 3.981140000000 0.187380000000 8.477310000000
22 2 6.204090000000 6.185110000000 12.677300000000
23 2 2.184390000000 2.151110000000 21.182740000000
24 2 6.480230000000 6.373610000000 21.144380000000
25 2 1.988520000000 6.477020000000 8.379900000000
26 2 8.411050000000 2.088820000000 6.311190000000
27 2 2.016810000000 2.122170000000 4.269970000000
28 2 0.060120000000 2.038130000000 14.789390000000
29 2 0.161230000000 6.278930000000 19.003520000000
30 2 6.341020000000 0.055000000000 2.125550000000
31 2 6.162410000000 0.071940000000 10.644560000000
32 2 4.214960000000 2.221140000000 19.003530000000
33 2 6.482870000000 8.438770000000 19.062520000000
34 2 6.428530000000 2.063490000000 16.911430000000
35 2 0.163390000000 2.083690000000 23.342440000000
36 2 2.063350000000 8.256170000000 14.908240000000
37 2 4.053780000000 6.099810000000 14.824240000000
38 2 6.304320000000 4.248040000000 6.384240000000
39 2 4.261280000000 6.451110000000 23.323310000000
40 2 0.097950000000 4.233550000000 16.925780000000
41 2 2.109310000000 4.287600000000 2.115530000000
42 2 4.172280000000 4.359020000000 21.111600000000
43 2 4.183860000000 8.276280000000 16.994360000000
44 2 6.388280000000 4.284910000000 23.222900000000
45 2 8.404990000000 6.289820000000 10.556460000000
46 2 8.453100000000 8.388550000000 12.730210000000
47 2 0.019110000000 4.328700000000 0.046610000000
48 2 6.280630000000 4.107880000000 14.787230000000
49 2 4.196490000000 4.235060000000 4.186950000000
50 2 2.145680000000 2.056180000000 12.630760000000
51 2 2.113490000000 4.163900000000 10.601780000000
52 2 0.039380000000 6.511820000000 2.218660000000
53 2 0.204890000000 8.427500000000 21.267870000000
54 2 4.167320000000 2.052110000000 2.008420000000
55 2 6.274950000000 2.070070000000 25.352440000000
56 2 8.449410000000 4.177220000000 8.465710000000
57 2 6.148160000000 2.184880000000 8.567270000000
58 2 4.067820000000 6.493820000000 6.294350000000
59 2 6.406970000000 6.499830000000 4.291340000000
60 2 2.205040000000 6.453140000000 25.373410000000
61 2 5.213010000000 3.152180000000 11.683440000000
62 2 3.213450000000 1.077280000000 24.318570000000
63 2 3.196340000000 5.230500000000 17.985080000000
64 2 0.998670000000 7.487290000000 5.289090000000
65 1 2.145630000000 2.160830000000 2.139320000000
66 1 6.224130000000 6.295470000000 6.311760000000
67 1 4.319960000000 8.390750000000 6.500880000000
68 1 4.357530000000 0.130830000000 2.133240000000
69 1 8.339660000000 6.463110000000 4.157770000000
70 1 0.037600000000 2.232120000000 4.325290000000
71 1 6.251720000000 4.203090000000 8.439110000000
72 1 1.908490000000 4.504990000000 0.253200000000
73 1 8.453270000000 4.403660000000 2.104190000000
74 1 8.184210000000 4.043360000000 6.605580000000
75 1 4.341520000000 2.099260000000 0.065600000000
76 1 4.059560000000 6.442330000000 8.332570000000
77 1 2.131670000000 0.079490000000 4.218920000000
78 1 6.202380000000 8.406970000000 4.131720000000
79 1 2.130820000000 6.492810000000 6.434100000000
80 1 6.290260000000 2.139800000000 2.053530000000
81 1 4.232800000000 4.164110000000 2.124890000000
82 1 4.265970000000 4.375740000000 6.232140000000
83 1 8.269290000000 2.122860000000 8.460740000000
84 1 0.040530000000 6.374270000000 0.083470000000
85 1 8.326540000000 0.066330000000 6.371690000000
86 1 8.326720000000 8.436780000000 2.099760000000
87 1 4.281980000000 6.297320000000 4.285220000000
88 1 4.168300000000 2.189960000000 4.158590000000
89 1 6.322110000000 2.181890000000 6.416210000000
90 1 2.074580000000 6.410220000000 2.090650000000
91 1 2.308390000000 4.071140000000 3.976040000000
92 1 6.225870000000 4.368610000000 4.321980000000
93 1 6.469170000000 0.159550000000 0.113760000000
94 1 2.073280000000 8.417570000000 8.646660000000
95 1 6.390970000000 6.429580000000 2.180670000000
96 1 1.925530000000 2.214990000000 6.223720000000
97 1 2.010150000000 2.186730000000 10.671420000000
98 1 6.273000000000 6.182710000000 14.745990000000
99 1 4.155620000000 8.282150000000 14.961060000000
100 1 4.267800000000 8.277210000000 10.445190000000
101 1 8.319260000000 6.355690000000 12.599610000000
102 1 0.190290000000 1.795780000000 12.923200000000
103 1 6.636140000000 3.928580000000 16.668150000000
104 1 2.047260000000 4.356910000000 8.471130000000
105 1 0.144260000000 4.414420000000 10.326470000000
106 1 0.012460000000 4.060090000000 14.823730000000
107 1 4.203260000000 2.100290000000 8.286620000000
108 1 4.140610000000 6.362210000000 16.806300000000
109 1 2.052960000000 8.426740000000 12.755080000000
110 1 6.402260000000 8.305170000000 12.652100000000
111 1 2.131530000000 6.327230000000 14.635620000000
112 1 6.161960000000 2.013580000000 10.505990000000
113 1 4.149000000000 4.282090000000 10.592640000000
114 1 4.325840000000 4.187860000000 14.929630000000
115 1 0.033320000000 2.051620000000 16.828100000000
116 1 8.430110000000 6.372700000000 8.495940000000
117 1 0.047630000000 8.340170000000 14.821940000000
118 1 8.278100000000 8.336320000000 10.689920000000
119 1 4.307940000000 6.437220000000 12.853970000000
120 1 4.200070000000 1.967910000000 12.752650000000
121 1 6.443850000000 1.980950000000 14.847760000000
122 1 2.016180000000 6.268630000000 10.519420000000
123 1 2.048480000000 4.039490000000 12.559810000000
124 1 6.248430000000 4.250850000000 12.827890000000
125 1 6.182310000000 0.110410000000 8.606730000000
126 1 2.257670000000 0.066510000000 16.834770000000
127 1 6.360930000000 6.383220000000 10.633920000000
128 1 2.122380000000 1.903000000000 14.736770000000
129 1 2.300970000000 2.010440000000 19.171300000000
130 1 6.403600000000 6.382620000000 23.188190000000
131 1 4.370280000000 0.039810000000 23.236000000000
132 1 4.420360000000 0.066030000000 18.982800000000
133 1 0.116570000000 6.416810000000 21.202440000000
134 1 0.117290000000 2.099140000000 21.228490000000
135 1 6.464140000000 4.200940000000 25.303780000000
136 1 2.128580000000 4.083410000000 16.917090000000
137 1 0.043630000000 4.303480000000 18.907010000000
138 1 8.427820000000 4.186990000000 23.391260000000
139 1 4.390820000000 1.966980000000 17.010610000000
140 1 4.192400000000 6.332270000000 25.298300000000
141 1 2.112880000000 0.145260000000 21.149010000000
142 1 6.550840000000 0.021070000000 21.093620000000
143 1 2.287490000000 6.355040000000 23.417570000000
144 1 6.366280000000 2.019480000000 18.965210000000
145 1 4.231610000000 4.158010000000 19.164880000000
146 1 4.529240000000 4.522500000000 22.997860000000
147 1 8.402810000000 2.267710000000 25.352920000000
148 1 0.005870000000 6.194970000000 17.027170000000
149 1 8.373660000000 0.166270000000 23.183130000000
150 1 0.059190000000 8.432930000000 19.128200000000
151 1 4.397860000000 6.422250000000 21.183300000000
152 1 4.292780000000 2.223980000000 21.064040000000
153 1 6.477250000000 2.269120000000 23.334410000000
154 1 2.173840000000 6.383170000000 19.084710000000
155 1 2.249470000000 4.127720000000 21.274880000000
156 1 6.454350000000 4.346640000000 21.182210000000
157 1 6.311980000000 0.004780000000 17.011270000000
158 1 2.095730000000 0.017490000000 0.015070000000
159 1 6.694180000000 6.557710000000 19.276640000000
160 1 2.074720000000 2.065920000000 23.187380000000
