ITEM: TIMESTEP
0
ITEM: NUMBER OF ATOMS
30
ITEM: BOX BOUNDS xy xz yz pp pp pp
-2.5622400845000000e+00 5.1244801889999998e+00 -2.5622400845000000e+00
0.0000000000000000e+00 4.4379304480000004e+00 0.0000000000000000e+00
0.0000000000000000e+00 1.3795467525999999e+01 0.0000000000000000e+00
ITEM: ATOMS id type x y z fx fy fz
1 2       0.000000000000       0.000000000000       1.988470000000       0.000053378746      -0.000025465678      -0.158478307073
2 2       0.000000007000       2.958620000000       0.310780000000       0.000033072561       0.000017644897       0.158366357484
3 2       2.562240003500       1.479310000000       2.610020000000       0.000052368851      -0.000010826948       0.158399677327
4 2       0.000000007000       2.958620000000       4.287720000000       0.000027122173       0.000011388922      -0.158414120474
5 2       2.562240003500       1.479310000000       6.586950000000      -0.000027883543       0.000009364649      -0.158295890941
6 2       0.000000000000       0.000000000000       4.909260000000      -0.000031829913      -0.000013000886       0.158574074711
7 2       0.000000007000       2.958620000000       7.208510000000       0.000028066411      -0.000008704759       0.158481341870
8 2       0.000000000000       0.000000000000       8.886200000000       0.000029873269       0.000004488732      -0.158458119705
9 2       0.000000007000       2.958620000000      11.185450000000      -0.000051524315       0.000014852507      -0.158442705966
10 2       2.562240003500       1.479310000000       9.507750000000      -0.000027613149      -0.000007198966       0.158400740855
11 2       0.000000000000       0.000000000000      11.807000000000      -0.000055333727       0.000016983869       0.158411153671
12 2       2.562240003500       1.479310000000      13.484690000000      -0.000032966848      -0.000016968790      -0.158393709568
13 1      -0.776369996818       1.344720000000       3.448870000000      -0.066498489240       0.115057533755      -0.000030641467
14 1       1.552750000000       0.000000000000       3.448870000000       0.132882475870       0.000001143947      -0.000018085885
15 1       1.785870007318       3.093210000000       3.448870000000      -0.066493513540      -0.115061492503       0.000006273692
16 1       3.338620000318       0.134590000000       1.149620000000       0.066363225167      -0.115040226722       0.000051519857
17 1       3.338620006682       2.824030000000       1.149620000000       0.066306719372       0.115069914814       0.000115442739
18 1       1.009490003500       1.479310000000       1.149620000000      -0.132789239872      -0.000031389808       0.000075371430
19 1       1.785870006682       2.824030000000       8.047350000000      -0.066451406268       0.115056624294       0.000057872679
20 1       4.114990003500       1.479310000000       8.047350000000       0.132850129973      -0.000042680509       0.000084817698
21 1       1.785870000318       0.134590000000       8.047350000000      -0.066521654263      -0.115014683333       0.000112192805
22 1       0.776370003818       1.613900000000       5.748120000000       0.066419231025      -0.115083946677      -0.000129020579
23 1       0.776370010182       4.303340000000       5.748120000000       0.066564654401       0.115001610023      -0.000185327602
24 1      -1.552749993000       2.958620000000       5.748120000000      -0.132859690808       0.000088344928      -0.000158997149
25 1      -0.776379989818       4.303340000000      12.645850000000      -0.066361927548       0.115042578561      -0.000028936027
26 1       1.552750007000       2.958620000000      12.645850000000       0.132791070912       0.000032193666      -0.000054904762
27 1      -0.776379996182       1.613900000000      12.645850000000      -0.066309120726      -0.115067692268      -0.000091924975
28 1       3.338610007318       3.093210000000      10.346600000000       0.066495948827      -0.115047150889       0.000030234503
29 1       0.776370003182       1.344720000000      10.346600000000       0.066487447583       0.115057294174      -0.000006636576
30 1       3.571730000000       0.000000000000      10.346600000000      -0.132872591379      -0.000010533003       0.000020257427
