ITEM: TIMESTEP
0
ITEM: NUMBER OF ATOMS
30
ITEM: BOX BOUNDS xy xz yz pp pp pp
-2.5217303700000002e+00 5.0434607400000004e+00 -2.5217303700000002e+00
0.0000000000000000e+00 4.3677655399999997e+00 0.0000000000000000e+00
0.0000000000000000e+00 1.3577357367999999e+01 0.0000000000000000e+00
ITEM: ATOMS id type v_vir_xx v_vir_yy v_vir_zz v_vir_xy v_vir_xz v_vir_yz
1 2      -3.971393076153      -3.971422779681      -3.044481353057      -0.000019023051      -0.000004020395       0.000016879330
2 2      -3.971472714190      -3.971477858714      -3.044770496545      -0.000019534820      -0.000005423603       0.000001565918
3 2      -3.971374799940      -3.971328990997      -3.044505693479      -0.000009675959      -0.000003698055       0.000013661149
4 2      -3.971339021559      -3.971381604474      -3.044484384998       0.000022346941       0.000001113389      -0.000006753484
5 2      -3.971496206417      -3.971480258636      -3.044724411917       0.000020018406       0.000003663399      -0.000006128124
6 2      -3.971362179993      -3.971386414225      -3.044450731741       0.000008917690       0.000010702407      -0.000005215435
7 2      -3.971459690593      -3.971463345757      -3.044713215473       0.000024378276       0.000001786721       0.000001108185
8 2      -3.971384066935      -3.971414021992      -3.044465390095       0.000012689770       0.000006284480       0.000016578531
9 2      -3.971340994071      -3.971385428526      -3.044510256000      -0.000019902752       0.000000222755      -0.000007395994
10 2      -3.971369528079      -3.971325454740      -3.044479189291       0.000008152393       0.000005981950       0.000014394997
11 2      -3.971366711173      -3.971392157846      -3.044466172217      -0.000013340280      -0.000010448288      -0.000005036445
12 2      -3.971508051216      -3.971495416472      -3.044781322007      -0.000018530992      -0.000007926893      -0.000006094652
13 1       1.914928521119       2.762116771882       1.787126695441      -0.733691432042       0.519044199496       0.299662890028
14 1       3.185699525967       1.491342250419       1.787133916506      -0.000006017024       0.000003042359      -0.599347670063
15 1       1.914931733863       2.762159755004       1.787136731763       0.733695681479      -0.519054495749       0.299683669190
16 1       1.914930734547       2.762085800659       1.787128302664      -0.733703216079       0.519049970036       0.299663319997
17 1       1.914888807232       2.762140368600       1.787129312017       0.733685461969      -0.519033776154       0.299681203531
18 1       3.185701447657       1.491301266432       1.787128521721       0.000029283603      -0.000009003676      -0.599333685979
19 1       1.914884241485       2.762138468685       1.787126084884      -0.733685608005       0.519032703604       0.299682880821
20 1       3.185704705453       1.491300226288       1.787124093161      -0.000027597157       0.000009748684      -0.599336238711
21 1       1.914924932013       2.762086614017       1.787124537697       0.733702288760      -0.519049370791       0.299663763343
22 1       1.914871479516       2.762158748414       1.787142596394      -0.733700621101       0.519036827489       0.299691345823
23 1       1.914937166008       2.762050254956       1.787106043691       0.733701977721      -0.519043764380       0.299643314238
24 1       3.185706918388       1.491313018927       1.787122771295      -0.000063156155       0.000016870865      -0.599340919800
25 1       1.914940115407       2.762049371976       1.787109624985      -0.733702540289       0.519042827636       0.299642928746
26 1       3.185704452438       1.491315321528       1.787126985473       0.000065757549      -0.000016848851      -0.599339326326
27 1       1.914875409532       2.762161138560       1.787145389519       0.733699084834      -0.519038002205       0.299690102965
28 1       1.914929305782       2.762159552360       1.787136111107      -0.733692939894       0.519055091681       0.299683543520
29 1       1.914925286076       2.762116426785       1.787127422743       0.733693720543      -0.519043547365       0.299662665004
30 1       3.185697898475       1.491341742916       1.787132433295       0.000004028346      -0.000002898275      -0.599346993348
