ITEM: TIMESTEP
0
ITEM: NUMBER OF ATOMS
30
ITEM: BOX BOUNDS xy xz yz pp pp pp
-2.5217303700000002e+00 5.0434607400000004e+00 -2.5217303700000002e+00
0.0000000000000000e+00 4.3677655399999997e+00 0.0000000000000000e+00
0.0000000000000000e+00 1.3577357367999999e+01 0.0000000000000000e+00
ITEM: ATOMS id type c_pe_atom
1 2      -3.848176612907
2 2      -3.847980061458
3 2      -3.848248869155
4 2      -3.848250331537
5 2      -3.848003000040
6 2      -3.848192359821
7 2      -3.848012331425
8 2      -3.848186703383
9 2      -3.848246674053
10 2      -3.848251698405
11 2      -3.848185252239
12 2      -3.847970508980
13 1      -7.333865916287
14 1      -7.333861792670
15 1      -7.333918143400
16 1      -7.334005991582
17 1      -7.333993967558
18 1      -7.333968464030
19 1      -7.333974585215
20 1      -7.333959455569
21 1      -7.333988934236
22 1      -7.333989291812
23 1      -7.333932849781
24 1      -7.333981907499
25 1      -7.333945367243
26 1      -7.333994200401
27 1      -7.334010654576
28 1      -7.333920833113
29 1      -7.333862394930
30 1      -7.333859952912
