ITEM: TIMESTEP
0
ITEM: NUMBER OF ATOMS
30
ITEM: BOX BOUNDS xy xz yz pp pp pp
-2.5217303700000002e+00 5.0434607400000004e+00 -2.5217303700000002e+00
0.0000000000000000e+00 4.3677655399999997e+00 0.0000000000000000e+00
0.0000000000000000e+00 1.3577357367999999e+01 0.0000000000000000e+00
ITEM: ATOMS id type x y z fx fy fz
1 2       0.000000000000       0.000000000000       1.957030000000      -0.000001463994      -0.000030773706      -0.012055738269
2 2      -0.000000000000       2.911840000000       0.305870000000      -0.000006110072       0.000045042292       0.012009320048
3 2       2.521730000000       1.455920000000       2.568750000000      -0.000000307466       0.000036688778       0.012068486279
4 2      -0.000000000000       2.911840000000       4.219930000000      -0.000005462593       0.000060684378      -0.012055082725
5 2       2.521730000000       1.455920000000       6.482810000000       0.000000066216       0.000021443920      -0.011987026815
6 2       0.000000000000       0.000000000000       4.831650000000       0.000004516595      -0.000006538814       0.012070870127
7 2      -0.000000000000       2.911840000000       7.094550000000      -0.000003565019       0.000044884325       0.011999105532
8 2       0.000000000000       0.000000000000       8.745710000000      -0.000008427595      -0.000030509409      -0.012056347771
9 2      -0.000000000000       2.911840000000      11.008610000000       0.000000899139       0.000061028087      -0.012061494956
10 2       2.521730000000       1.455920000000       9.357430000000       0.000007393922       0.000036939369       0.012061736923
11 2       0.000000000000       0.000000000000      11.620330000000      -0.000007162651      -0.000006207717       0.012069903714
12 2       2.521730000000       1.455920000000      13.271490000000       0.000011611499       0.000020978674      -0.011997518763
13 1       4.279360000000       1.323460000000       3.394340000000       0.011985610106      -0.020734797164      -0.000006529405
14 1       1.528200000000       0.000000000000       3.394340000000      -0.023951009283      -0.000008905987       0.000023221633
15 1       1.757630000000       3.044310000000       3.394340000000       0.011980797835       0.020672189908      -0.000012480480
16 1       3.285830000000       0.132460000000       1.131440000000      -0.011944127656       0.020798383797       0.000107574008
17 1       3.285830000000       2.779380000000       1.131440000000      -0.012044092710      -0.020737452096       0.000129886937
18 1       0.993530000000       1.455920000000       1.131440000000       0.023989611732      -0.000042465371       0.000140050529
19 1       1.757630000000       2.779380000000       7.920120000000       0.012046578170      -0.020736934438       0.000121165401
20 1       4.049930000000       1.455920000000       7.920120000000      -0.023985158205      -0.000039717390       0.000127679577
21 1       1.757630000000       0.132460000000       7.920120000000       0.011951038382       0.020795543652       0.000092994612
22 1       0.764100000000       1.588390000000       5.657240000000      -0.012036977876       0.020677116281      -0.000130059528
23 1       0.764100000000       4.235310000000       5.657240000000      -0.011953811155      -0.020866514104      -0.000118793716
24 1      -1.528200000000       2.911840000000       5.657240000000       0.023983718913       0.000115478293      -0.000125422025
25 1      -0.764100000000       4.235310000000      12.445920000000       0.011948937239      -0.020869553411      -0.000130785518
26 1       1.528200000000       2.911840000000      12.445920000000      -0.023986664170       0.000119153979      -0.000138664915
27 1      -0.764100000000       1.588390000000      12.445920000000       0.012035896187       0.020677275263      -0.000139556483
28 1      -1.757630000000       3.044310000000      10.183020000000      -0.011986771085       0.020671958065      -0.000016297771
29 1       0.764100000000       1.323460000000      10.183020000000      -0.011981124545      -0.020735415696      -0.000010342524
30 1       3.515260000000       0.000000000000      10.183020000000       0.023955560140      -0.000009003757       0.000020146346
