ITEM: TIMESTEP
0
ITEM: NUMBER OF ATOMS
80
ITEM: BOX BOUNDS pp pp pp
0.0000000000000000e+00 9.5426977789999992e+00
0.0000000000000000e+00 9.5426977789999992e+00
0.0000000000000000e+00 9.5426977789999992e+00
ITEM: ATOMS id type x y z fx fy fz
1 2       7.157020000000       2.385670000000       2.385670000000       0.000055033306       0.000059033518       0.000087707445
2 2       7.157020000000       4.420750000000       4.771350000000       0.000032483476      -0.028230809200      -0.000022589458
3 2       0.000000000000       7.157020000000       0.350600000000      -0.000011962808       0.000036911351       0.028158811875
4 2       0.000000000000       2.385670000000       4.420750000000      -0.000051126372       0.000077378565      -0.028231634226
5 2       0.350600000000       0.000000000000       7.157020000000       0.028158811875      -0.000011962808       0.000036911351
6 2       0.350600000000       4.771350000000       2.385670000000       0.028160436328      -0.000061761268       0.000081802591
7 2       2.385670000000       4.420750000000       0.000000000000       0.000077378565      -0.028231634226      -0.000051126372
8 2       2.385670000000       7.157020000000       2.385670000000       0.000087707445       0.000055033306       0.000059033518
9 2       2.385670000000       2.385670000000       2.385670000000       0.000031376299       0.000031376299       0.000031376299
10 2       2.385670000000       2.385670000000       7.157020000000       0.000059033518       0.000087707445       0.000055033306
11 2       2.385670000000       0.350600000000       4.771350000000       0.000081802591       0.028160436328      -0.000061761268
12 2       4.420750000000       0.000000000000       2.385670000000      -0.028231634226      -0.000051126372       0.000077378565
13 2       4.420750000000       4.771350000000       7.157020000000      -0.028230809200      -0.000022589458       0.000032483476
14 2       4.771350000000       2.385670000000       0.350600000000      -0.000061761268       0.000081802591       0.028160436328
15 2       4.771350000000       7.157020000000       4.420750000000      -0.000022589458       0.000032483476      -0.028230809200
16 2       7.157020000000       0.350600000000       0.000000000000       0.000036911351       0.028158811875      -0.000011962808
17 2       2.385670000000       7.157020000000       7.157020000000       0.000068045754       0.000053923393       0.000090594023
18 2       2.385670000000       9.192100000000       0.000000000000       0.000043470614      -0.028243674790      -0.000017362787
19 2       4.771350000000       2.385670000000       5.121950000000      -0.000027985163       0.000039058160       0.028141081132
20 2       4.771350000000       7.157020000000       9.192100000000      -0.000067148491       0.000075228820      -0.028242848042
21 2       5.121950000000       4.771350000000       2.385670000000       0.028141081132      -0.000027985163       0.000039058160
22 2       5.121950000000       0.000000000000       7.157020000000       0.028139454778      -0.000056533678       0.000070815676
23 2       7.157020000000       9.192100000000       4.771350000000       0.000075228820      -0.028242848042      -0.000067148491
24 2       7.157020000000       2.385670000000       7.157020000000       0.000090594023       0.000068045754       0.000053923393
25 2       7.157020000000       7.157020000000       7.157020000000       0.000026358195       0.000026358195       0.000026358195
26 2       7.157020000000       7.157020000000       2.385670000000       0.000053923393       0.000090594023       0.000068045754
27 2       7.157020000000       5.121950000000       0.000000000000       0.000070815676       0.028139454778      -0.000056533678
28 2       9.192100000000       4.771350000000       7.157020000000      -0.028242848042      -0.000067148491       0.000075228820
29 2       9.192100000000       0.000000000000       2.385670000000      -0.028243674790      -0.000017362787       0.000043470614
30 2       0.000000000000       7.157020000000       5.121950000000      -0.000056533678       0.000070815676       0.028139454778
31 2       0.000000000000       2.385670000000       9.192100000000      -0.000017362787       0.000043470614      -0.028243674790
32 2       2.385670000000       5.121950000000       4.771350000000       0.000039058160       0.028141081132      -0.000027985163
33 1       8.465300000000       5.849990000000       1.515020000000      -0.058246290124       0.014967922891       0.034549049353
34 1       8.465300000000       3.692710000000       3.256320000000      -0.058243216047      -0.015009845376      -0.034475997078
35 1       8.464060000000       1.515020000000       1.077400000000      -0.014994390800       0.034526340444       0.058187706815
36 1       8.464060000000       3.256320000000       5.848750000000      -0.015002006413      -0.034456422173       0.058165291213
37 1       1.078640000000       3.256320000000       1.077400000000       0.014968130870      -0.034455637839       0.058178469349
38 1       1.078640000000       1.515020000000       5.848750000000       0.014953434789       0.034528968655       0.058165263194
39 1       1.077400000000       8.464060000000       1.515020000000       0.058187706815      -0.014994390800       0.034526340444
40 1       1.077400000000       1.078640000000       3.256320000000       0.058178469349       0.014968130870      -0.034455637839
41 1       1.515020000000       5.848750000000       1.078640000000       0.034528968655       0.058165263194       0.014953434789
42 1       1.515020000000       3.693950000000       3.692710000000       0.034547417369      -0.058226044561      -0.014996517845
43 1       1.515020000000       1.077400000000       8.464060000000       0.034526340444       0.058187706815      -0.014994390800
44 1       1.515020000000       8.465300000000       5.849990000000       0.034549049353      -0.058246290124       0.014967922891
45 1       3.256320000000       3.693950000000       5.849990000000      -0.034477239084      -0.058219896655       0.014976914204
46 1       3.256320000000       1.077400000000       1.078640000000      -0.034455637839       0.058178469349       0.014968130870
47 1       3.256320000000       8.465300000000       3.692710000000      -0.034475997078      -0.058243216047      -0.015009845376
48 1       3.256320000000       5.848750000000       8.464060000000      -0.034456422173       0.058165291213      -0.015002006413
49 1       3.693950000000       3.692710000000       1.515020000000      -0.058226044561      -0.014996517845       0.034547417369
50 1       3.693950000000       5.849990000000       3.256320000000      -0.058219896655       0.014976914204      -0.034477239085
51 1       3.692710000000       1.515020000000       3.693950000000      -0.014996517845       0.034547417369      -0.058226044561
52 1       3.692710000000       3.256320000000       8.465300000000      -0.015009845376      -0.034475997078      -0.058243216047
53 1       5.849990000000       1.515020000000       8.465300000000       0.014967922891       0.034549049353      -0.058246290124
54 1       5.849990000000       3.256320000000       3.693950000000       0.014976914204      -0.034477239085      -0.058219896655
55 1       5.848750000000       8.464060000000       3.256320000000       0.058165291213      -0.015002006413      -0.034456422173
56 1       5.848750000000       1.078640000000       1.515020000000       0.058165263194       0.014953434789       0.034528968655
57 1       3.693950000000       1.078640000000       6.286370000000      -0.058223380267       0.014972870470       0.034536127573
58 1       3.693950000000       8.464060000000       8.027670000000      -0.058227957350      -0.015017442876      -0.034481601437
59 1       3.692710000000       6.286370000000       5.848750000000      -0.014979309801       0.034522719786       0.058165185726
60 1       3.692710000000       8.027670000000       1.077400000000      -0.014990000382      -0.034467399484       0.058182947189
61 1       5.849990000000       8.027670000000       5.848750000000       0.014955702449      -0.034470551168       0.058163601854
62 1       5.849990000000       6.286370000000       1.077400000000       0.014952072536       0.034522444950       0.058181461689
63 1       5.848750000000       3.692710000000       6.286370000000       0.058165185726      -0.014979309801       0.034522719786
64 1       5.848750000000       5.849990000000       8.027670000000       0.058163601854       0.014955702449      -0.034470551168
65 1       6.286370000000       1.077400000000       5.849990000000       0.034522444950       0.058181461689       0.014952072536
66 1       6.286370000000       8.465300000000       8.464060000000       0.034535408382      -0.058249797370      -0.015012458386
67 1       6.286370000000       5.848750000000       3.692710000000       0.034522719786       0.058165185726      -0.014979309801
68 1       6.286370000000       3.693950000000       1.078640000000       0.034536127573      -0.058223380267       0.014972870470
69 1       8.027670000000       8.465300000000       1.078640000000      -0.034482723834      -0.058245105137       0.014982210726
70 1       8.027670000000       5.848750000000       5.849990000000      -0.034470551168       0.058163601854       0.014955702449
71 1       8.027670000000       3.693950000000       8.464060000000      -0.034481601437      -0.058227957350      -0.015017442876
72 1       8.027670000000       1.077400000000       3.692710000000      -0.034467399484       0.058182947189      -0.014990000382
73 1       8.465300000000       8.464060000000       6.286370000000      -0.058249797370      -0.015012458386       0.034535408382
74 1       8.465300000000       1.078640000000       8.027670000000      -0.058245105137       0.014982210726      -0.034482723834
75 1       8.464060000000       6.286370000000       8.465300000000      -0.015012458386       0.034535408382      -0.058249797370
76 1       8.464060000000       8.027670000000       3.693950000000      -0.015017442876      -0.034481601437      -0.058227957350
77 1       1.078640000000       6.286370000000       3.693950000000       0.014972870470       0.034536127573      -0.058223380267
78 1       1.078640000000       8.027670000000       8.465300000000       0.014982210726      -0.034482723834      -0.058245105137
79 1       1.077400000000       3.692710000000       8.027670000000       0.058182947189      -0.014990000382      -0.034467399484
80 1       1.077400000000       5.849990000000       6.286370000000       0.058181461689       0.014952072536       0.034522444950
