ITEM: TIMESTEP
0
ITEM: NUMBER OF ATOMS
80
ITEM: BOX BOUNDS pp pp pp
0.0000000000000000e+00 8.8021311939999993e+00
0.0000000000000000e+00 1.0251514617000000e+01
0.0000000000000000e+00 9.4185390170000005e+00
ITEM: ATOMS id type c_pe_atom
1 2      -6.932935573639
2 2      -6.933028287162
3 2      -8.375496422042
4 2      -8.375451856549
5 2      -5.968736796312
6 2      -4.269441582943
7 2      -4.269467609239
8 2      -5.968790292080
9 2      -8.377917198778
10 2      -8.377905048194
11 2      -6.935394921984
12 2      -6.935365472319
13 2      -5.962675168623
14 2      -4.267604113332
15 2      -4.267547284780
16 2      -5.962608662345
17 2      -6.932949042758
18 2      -6.933026928713
19 2      -8.375469659081
20 2      -8.375449222864
21 2      -5.968744071156
22 2      -4.269431312159
23 2      -4.269456680481
24 2      -5.968771643627
25 2      -8.377952455245
26 2      -8.377929362830
27 2      -6.935348419923
28 2      -6.935399446471
29 2      -5.962672186612
30 2      -4.267563214350
31 2      -4.267591573024
32 2      -5.962650532134
33 1      -3.449576962480
34 1      -2.480657943006
35 1      -3.555518672805
36 1     -10.296317744463
37 1      -3.449664399084
38 1      -7.318447641463
39 1      -3.555602450730
40 1     -10.296230606231
41 1      -7.319457214233
42 1      -3.441988635683
43 1     -10.293063914531
44 1      -3.553730546270
45 1      -2.477172011298
46 1      -3.442136193173
47 1      -6.796880213940
48 1      -6.799756681767
49 1      -2.477205438515
50 1      -7.318483103956
51 1      -6.796811838284
52 1      -6.799682057182
53 1      -7.319514976687
54 1      -2.480606344388
55 1     -10.293178206349
56 1      -3.553634889538
57 1      -3.449521304568
58 1      -2.480667229387
59 1      -3.555589719864
60 1     -10.296305689504
61 1      -3.449618890630
62 1      -7.318423477896
63 1      -3.555605616420
64 1     -10.296246089766
65 1      -7.319451427814
66 1      -3.442008909353
67 1     -10.293072600076
68 1      -3.553739051177
69 1      -2.477156333999
70 1      -3.442110727679
71 1      -6.796873198936
72 1      -6.799734448886
73 1      -2.477232319432
74 1      -7.318479696308
75 1      -6.796894577719
76 1      -6.799746279204
77 1      -7.319494120780
78 1      -2.480636291911
79 1     -10.293187430712
80 1      -3.553685887846
