ITEM: TIMESTEP
0
ITEM: NUMBER OF ATOMS
20
ITEM: BOX BOUNDS xy xz yz pp pp pp
-1.4097261383580000e+00 1.2634893372084999e+01 0.0000000000000000e+00
0.0000000000000000e+00 3.1289210260000000e+00 -1.4097261383580000e+00
0.0000000000000000e+00 5.7926239146559997e+00 0.0000000000000000e+00
ITEM: ATOMS id type c_pe_atom
1 2      -5.213299183669
2 2      -5.213292343105
3 2      -4.750813312511
4 2      -4.750803363103
5 2      -5.213291480642
6 2      -5.213292213846
7 2      -4.750802859622
8 2      -4.750805929009
9 1     -10.972011308617
10 1     -10.972011360324
11 1     -10.800317221900
12 1     -10.800307983325
13 1     -10.872934523249
14 1     -10.872930805276
15 1     -10.972012102800
16 1     -10.972011864715
17 1     -10.800311104932
18 1     -10.800318966860
19 1     -10.872933473105
20 1     -10.872931547686
