ITEM: TIMESTEP
0
ITEM: NUMBER OF ATOMS
40
ITEM: BOX BOUNDS pp pp pp
0.0000000000000000e+00 8.8197354570000002e+00
0.0000000000000000e+00 5.1360088230000001e+00
0.0000000000000000e+00 9.4373760949999994e+00
ITEM: ATOMS id type c_pe_atom
1 2      -7.133664057782
2 2      -7.133655294147
3 2      -8.549426680957
4 2      -8.549415423983
5 2      -6.144589605181
6 2      -4.482154499876
7 2      -4.482174222423
8 2      -6.144556820158
9 2      -8.550276139938
10 2      -8.550311729786
11 2      -7.136745536515
12 2      -7.136746335733
13 2      -6.137520636529
14 2      -4.482230316890
15 2      -4.482168263927
16 2      -6.137585913791
17 1      -3.317821589034
18 1      -2.387727372747
19 1      -3.480776885965
20 1     -10.073637189056
21 1      -3.317838194103
22 1      -7.184420834633
23 1      -3.480830218288
24 1     -10.073609163554
25 1      -7.187858798154
26 1      -3.311585838169
27 1     -10.072554954673
28 1      -3.479697007811
29 1      -2.384143107274
30 1      -3.311531125202
31 1      -6.684796460657
32 1      -6.685450532931
33 1      -2.384180296625
34 1      -7.184457511810
35 1      -6.684771481602
36 1      -6.685572546359
37 1      -7.187712719442
38 1      -2.387760960917
39 1     -10.072574695776
40 1      -3.479703737744
