ITEM: TIMESTEP
0
ITEM: NUMBER OF ATOMS
30
ITEM: BOX BOUNDS xy xz yz pp pp pp
-2.5369215065000001e+00 5.0738430330000002e+00 -2.5369215065000001e+00
0.0000000000000000e+00 4.3940773809999998e+00 0.0000000000000000e+00
0.0000000000000000e+00 1.3659148676999999e+01 0.0000000000000000e+00
ITEM: ATOMS id type c_pe_atom
1 2      -4.713379520176
2 2      -4.713376966141
3 2      -4.713400071086
4 2      -4.713384081707
5 2      -4.713376860682
6 2      -4.713384746220
7 2      -4.713373900744
8 2      -4.713376341397
9 2      -4.713386419806
10 2      -4.713386805357
11 2      -4.713380131935
12 2      -4.713378670172
13 1     -11.029158216734
14 1     -11.029155954558
15 1     -11.029155910779
16 1     -11.029161391777
17 1     -11.029163372363
18 1     -11.029170260730
19 1     -11.029159998069
20 1     -11.029161546328
21 1     -11.029161164093
22 1     -11.029160030818
23 1     -11.029153443504
24 1     -11.029153816540
25 1     -11.029160396743
26 1     -11.029160049793
27 1     -11.029163204099
28 1     -11.029155854060
29 1     -11.029161994957
30 1     -11.029153579918
