ITEM: TIMESTEP
0
ITEM: NUMBER OF ATOMS
30
ITEM: BOX BOUNDS xy xz yz pp pp pp
-2.5369215065000001e+00 5.0738430330000002e+00 -2.5369215065000001e+00
0.0000000000000000e+00 4.3940773809999998e+00 0.0000000000000000e+00
0.0000000000000000e+00 1.3659148676999999e+01 0.0000000000000000e+00
ITEM: ATOMS id type x y z fx fy fz
1 2       0.000000000000       0.000000000000       1.968820000000       0.000057011748      -0.000070817965      -0.112929917013
2 2       0.000000007000       2.929380000000       0.307710000000       0.000045253709       0.000072600747       0.112879940953
3 2       2.536920003500       1.464690000000       2.584220000000       0.000083354459       0.000004923687       0.113059423776
4 2       0.000000007000       2.929380000000       4.245350000000       0.000007967248       0.000064131607      -0.112901146843
5 2       2.536920003500       1.464690000000       6.521870000000      -0.000009241205       0.000007815246      -0.112949006552
6 2       0.000000000000       0.000000000000       4.860750000000      -0.000025278734      -0.000060736263       0.113066245288
7 2       0.000000007000       2.929380000000       7.137280000000      -0.000001199705       0.000062820827       0.112918178784
8 2       0.000000000000       0.000000000000       8.798390000000      -0.000001840146      -0.000062043856      -0.112957349931
9 2       0.000000007000       2.929380000000      11.074920000000      -0.000031810190       0.000080841814      -0.112964260887
10 2       2.536920003500       1.464690000000       9.413800000000       0.000010992016      -0.000013697608       0.112938773150
11 2       0.000000000000       0.000000000000      11.690330000000      -0.000023584309      -0.000055944558       0.112958673066
12 2       2.536920003500       1.464690000000      13.351440000000       0.000005275519       0.000024322217      -0.112931544950
13 1      -0.768699996818       1.331430000000       3.414790000000      -0.059188324129       0.102394158366      -0.000069875358
14 1       1.537410000000       0.000000000000       3.414790000000       0.118212274146      -0.000039731878      -0.000023969787
15 1       1.768220007318       3.062640000000       3.414790000000      -0.059120008712      -0.102380920433      -0.000034769721
16 1       3.305630000318       0.133260000000       1.138260000000       0.059075566448      -0.102444978657       0.000020076521
17 1       3.305630006682       2.796120000000       1.138260000000       0.059005900616       0.102487099689       0.000092451698
18 1       0.999520003500       1.464690000000       1.138260000000      -0.118261026687      -0.000035905876       0.000050112125
19 1       1.768220006682       2.796120000000       7.967830000000      -0.059094155649       0.102465352069       0.000115932054
20 1       4.074330003500       1.464690000000       7.967830000000       0.118196316892      -0.000038073006       0.000112519845
21 1       1.768220000318       0.133260000000       7.967830000000      -0.059163177330      -0.102426985620       0.000113517671
22 1       0.768700003818       1.597950000000       5.691320000000       0.059095049164      -0.102408816669      -0.000110449271
23 1       0.768700010182       4.260820000000       5.691320000000       0.059209571702       0.102281696089      -0.000147902035
24 1      -1.537409993000       2.929380000000       5.691320000000      -0.118205951290       0.000126951450      -0.000146931316
25 1      -0.768699989818       4.260820000000      12.520890000000      -0.059223576854       0.102284580709      -0.000088104561
26 1       1.537400007000       2.929380000000      12.520890000000       0.118285480268       0.000086013971      -0.000066240323
27 1      -0.768709996182       1.597950000000      12.520890000000      -0.058989243197      -0.102388674322      -0.000073934663
28 1       3.305620007318       3.062640000000      10.244360000000       0.059194366583      -0.102347597284       0.000046808782
29 1       0.768700003182       1.331430000000      10.244360000000       0.059160288624       0.102387703666       0.000002594182
30 1       3.536440000000       0.000000000000      10.244360000000      -0.118306251005      -0.000056088160       0.000020155316
