ITEM: TIMESTEP
0
ITEM: NUMBER OF ATOMS
160
ITEM: BOX BOUNDS pp pp pp
0.0000000000000000e+00 8.5039773939999996e+00
0.0000000000000000e+00 8.5039773939999996e+00
0.0000000000000000e+00 2.5511932182999999e+01
ITEM: ATOMS id type x y z fx fy fz
1 2       1.233330000000       5.279350000000      22.443340000000      -0.421085579688       0.222899775373      -0.021042775803
2 2       5.284990000000       0.859470000000      13.884330000000       0.069710595394       0.061676388754      -0.273977189099
3 2       7.274880000000       7.520910000000       7.501100000000       0.011436859980      -0.247357776950      -0.203255247875
4 2       7.403710000000       7.244210000000      16.012860000000       0.092908250116       0.561217518060       0.020842997355
5 2       5.308960000000       5.324450000000       0.996910000000       0.306217845972       0.125132624688      -0.023366790867
6 2       3.079430000000       3.253180000000       7.316900000000       0.101311232061      -0.198318454933       0.103445020135
7 2       0.970570000000       1.061500000000       1.097030000000       0.145428649266       0.247627261252      -0.145383964416
8 2       5.252580000000       1.038620000000       5.323920000000      -0.025601055915       0.287088730322      -0.111225909809
9 2       3.232950000000       3.017340000000      15.906170000000      -0.077543447313       0.165951822824       0.045642265389
10 2       5.463730000000       1.138530000000      22.253700000000      -0.037584423337       0.087201275870       0.236093238817
11 2       3.194070000000       7.367640000000      11.694200000000      -0.204015513354       0.067230444457      -0.029607602710
12 2       7.540840000000       3.251170000000      20.121020000000      -0.103082915524      -0.448253607606       0.083728803777
13 2       1.035730000000       5.177780000000      13.694560000000       0.010868975735       0.231684555224       0.070394454087
14 2       7.440250000000       3.276620000000       3.254920000000      -0.338012483990      -0.128357219440       0.022324913211
15 2       5.177400000000       5.408660000000       9.521500000000       0.244837288466      -0.067674039091       0.166857221232
16 2       7.476320000000       7.561870000000      24.474700000000       0.014248693909      -0.338992500803      -0.078066150402
17 2       3.241580000000       7.565530000000      20.229760000000       0.148089629846      -0.255211626052      -0.153327426825
18 2       0.931440000000       1.091580000000       9.677460000000       0.216850160849      -0.162621197973      -0.189771390344
19 2       3.274760000000       7.539880000000       3.157320000000      -0.140180151112      -0.226764210800       0.081049389535
20 2       1.198360000000       1.044340000000      18.095820000000      -0.329642607100      -0.075945346893      -0.142745042359
21 2       4.001750000000       0.184320000000       8.514850000000       0.077537794610      -0.067360797360       0.016490550809
22 2       6.230160000000       6.215460000000      12.734410000000       0.341494602925      -0.079622177656      -0.164371570246
23 2       2.191590000000       2.154980000000      21.275840000000       0.006291308020      -0.083873234371       0.088753439672
24 2       6.509330000000       6.405280000000      21.242210000000      -0.055058393815      -0.053329923608       0.345182378919
25 2       1.999010000000       6.509260000000       8.418210000000      -0.170651497579      -0.244977865035      -0.052590380871
26 2       8.445780000000       2.100430000000       6.337720000000      -0.296377175948      -0.223241410534       0.164875523967
27 2       2.026090000000       2.132660000000       4.287580000000       0.180011182228      -0.104206058285      -0.256678388833
28 2       0.063870000000       2.047220000000      14.858490000000      -0.236812424703      -0.083824980559       0.341683262677
29 2       0.158630000000       6.307810000000      19.085790000000       0.100455247075       0.353010287873       0.345807749078
30 2       6.369770000000       0.054810000000       2.135200000000       0.012027090756      -0.012647792466      -0.031840439321
31 2       6.188880000000       0.071950000000      10.690730000000       0.449224427486      -0.128817190723       0.243546838260
32 2       4.227940000000       2.230760000000      19.086800000000       0.401661897241       0.176394612866      -0.263205512711
33 2       6.511500000000       8.481610000000      19.150130000000      -0.204171358129       0.536850986538      -0.283258080819
34 2       6.454710000000       2.068390000000      16.980280000000      -0.068764954606      -0.512898982739       0.329228645152
35 2       0.163930000000       2.091480000000      23.446360000000       0.008752612029       0.261087546234       0.111220479837
36 2       2.074920000000       8.293120000000      14.972060000000      -0.149735240679       0.144449459374      -0.013462418061
37 2       4.069820000000       6.128520000000      14.887920000000       0.168300005723       0.100013792756       0.169531043917
38 2       6.327540000000       4.267740000000       6.415910000000      -0.243870918929       0.243145206286      -0.336331185288
39 2       4.282890000000       6.475620000000      23.424980000000       0.354458669903       0.447195493129      -0.151211962822
40 2       0.092250000000       4.249440000000      17.002050000000       0.198659971238      -0.305199761166      -0.189949063024
41 2       2.121290000000       4.307750000000       2.125290000000      -0.020283458752      -0.013055005013      -0.016775607295
42 2       4.183270000000       4.379380000000      21.204030000000       0.332146905475      -0.081418530680      -0.233173995353
43 2       4.200800000000       8.312780000000      17.068100000000       0.433638279604       0.099366354973       0.281832652506
44 2       6.422940000000       4.302480000000      23.317550000000       0.381535553636      -0.093380967245       0.379643281032
45 2       8.442480000000       6.323810000000      10.596790000000      -0.208257827852       0.215699896716       0.309062644198
46 2       8.492750000000       8.421750000000      12.788420000000      -0.160286157586      -0.185781656556      -0.241661607455
47 2       0.014500000000       4.349160000000       0.050670000000      -0.347090192357      -0.101143181381      -0.303797515648
48 2       6.303510000000       4.123400000000      14.847310000000       0.150367778949      -0.003423324621      -0.271861391657
49 2       4.220110000000       4.250340000000       4.202500000000       0.346131049666       0.155190931516       0.273130330053
50 2       2.154660000000       2.065950000000      12.689380000000       0.296971638818      -0.284890224940       0.217653145348
51 2       2.121110000000       4.185400000000      10.650020000000       0.209684911970       0.284369056451      -0.233744675991
52 2       0.040340000000       6.543860000000       2.229120000000       0.076090662119      -0.271642805844       0.088402786055
53 2       0.206880000000       8.463260000000      21.361590000000      -0.270214777263      -0.033140592177      -0.006470136293
54 2       4.185250000000       2.055030000000       2.018380000000      -0.038414176253       0.277536380388      -0.059925963878
55 2       6.301610000000       2.077330000000      25.463370000000      -0.101325753134       0.340663815169      -0.142493587584
56 2       8.494230000000       4.191700000000       8.502250000000      -0.162688949823       0.171736877664      -0.025471564034
57 2       6.169760000000       2.193920000000       8.602320000000       0.241450508805       0.172730008528       0.023216416933
58 2       4.086420000000       6.524070000000       6.322520000000       0.029066073677      -0.376701358674      -0.278069321013
59 2       6.434190000000       6.528570000000       4.311300000000       0.149226835005      -0.403880445985       0.120709111518
60 2       2.214540000000       6.479770000000      25.483220000000      -0.265267678089       0.108589344626       0.226121305770
61 2       5.231970000000       3.163640000000      11.732250000000      -0.043756980187      -0.001954692910      -0.000518979891
62 2       3.228190000000       1.077670000000      24.424030000000       0.099128208127      -0.196055704810       0.109468370787
63 2       3.203650000000       5.254860000000      18.061350000000      -0.024361631785      -0.007502075441      -0.032214015364
64 2       1.003580000000       7.523520000000       5.313500000000      -0.068023942365       0.041646533462      -0.078318680674
65 1       2.156230000000       2.166330000000       2.147260000000       0.291085633905       0.099051945778       0.253510686503
66 1       6.254220000000       6.322140000000       6.339350000000       0.052032441812      -0.159502794591      -0.224043115718
67 1       4.348640000000       8.423200000000       6.531750000000       0.004464797224       0.123022547680      -0.140835673613
68 1       4.377950000000       0.130860000000       2.152010000000      -0.023904639229      -0.069256923771      -0.066766024668
69 1       8.372170000000       6.505480000000       4.173370000000       0.251045578656       0.010531989463       0.218674812730
70 1       0.041040000000       2.252810000000       4.346810000000       0.137940992330      -0.191070612523       0.094915984025
71 1       6.272540000000       4.217830000000       8.476140000000       0.213087897532      -0.323203883871      -0.098631497604
72 1       1.906790000000       4.532390000000       0.264850000000      -0.107750981289      -0.270592656471       0.214536733467
73 1       8.489190000000       4.424670000000       2.116290000000       0.277692200911       0.074765833121      -0.111779356516
74 1       8.208750000000       4.054890000000       6.644290000000      -0.037127533184       0.132595879265       0.205182277711
75 1       4.363570000000       2.093710000000       0.070580000000      -0.256571804018       0.029997330707      -0.159152763376
76 1       4.077390000000       6.468260000000       8.367680000000      -0.186158814621       0.127812936770      -0.129537535073
77 1       2.140450000000       0.077690000000       4.239010000000       0.098757200400       0.222383784969      -0.027603788521
78 1       6.222850000000       8.439430000000       4.149050000000       0.005595170838       0.249671465395       0.040362596185
79 1       2.143750000000       6.534880000000       6.466450000000      -0.191034743053       0.047356598376      -0.248913680240
80 1       6.319140000000       2.145600000000       2.064120000000      -0.097269715072      -0.244183400362      -0.090434977036
81 1       4.253330000000       4.181080000000       2.132800000000      -0.274599113543      -0.112455759030       0.129299101055
82 1       4.285520000000       4.394430000000       6.256750000000      -0.130537746048      -0.092994910657      -0.045041081127
83 1       8.308500000000       2.133110000000       8.501090000000      -0.031922998615       0.181743525346      -0.276393475848
84 1       0.039340000000       6.401920000000       0.079480000000       0.356161665579      -0.093824967128      -0.074076819997
85 1       8.364280000000       0.066630000000       6.399970000000       0.132123628508       0.275458516198      -0.008495932236
86 1       8.363770000000       8.472230000000       2.099020000000       0.015312037217       0.060443278908       0.064485410859
87 1       4.299330000000       6.322550000000       4.307470000000      -0.092369082043      -0.008849931212       0.139744446567
88 1       4.187680000000       2.198520000000       4.179100000000      -0.290044925829       0.038123619879       0.077349471266
89 1       6.351430000000       2.189600000000       6.441790000000       0.313082439586       0.029998479044       0.013262463157
90 1       2.083650000000       6.441420000000       2.101800000000      -0.298770023173      -0.082491492207      -0.216196127181
91 1       2.329510000000       4.081700000000       3.984160000000       0.121434836419       0.256217767916      -0.184426591236
92 1       6.253650000000       4.388280000000       4.342850000000       0.092616495200       0.019103874443       0.073437003946
93 1       6.505320000000       0.163870000000       0.115230000000      -0.004902156487      -0.198005617614      -0.010373601714
94 1       2.088560000000       8.453880000000       8.696560000000       0.116997317883       0.369662032619       0.084681049405
95 1       6.419530000000       6.460030000000       2.189610000000       0.075477262964       0.224217639259       0.135135619545
96 1       1.929280000000       2.237930000000       6.245620000000      -0.063404072459      -0.132974515211       0.095532910043
97 1       2.008680000000       2.202490000000      10.723750000000       0.273093996919       0.077460856705       0.001829304462
98 1       6.303560000000       6.207290000000      14.809880000000      -0.160622435915      -0.243984566857      -0.199023926020
99 1       4.174530000000       8.320460000000      15.027300000000      -0.090621635523      -0.233257226799       0.165145107142
100 1       4.291920000000       8.304900000000      10.489430000000      -0.216039112597       0.066192490634       0.115082872486
101 1       8.355630000000       6.384430000000      12.650660000000       0.055799012495      -0.083079276171      -0.072765650085
102 1       0.198520000000       1.792810000000      12.992680000000      -0.170529736479      -0.079895347988      -0.012375125716
103 1       6.671130000000       3.934060000000      16.728570000000      -0.174523887291      -0.081981242122      -0.032747185441
104 1       2.057330000000       4.375110000000       8.503400000000      -0.168576104415       0.009263595168       0.284738465404
105 1       0.152500000000       4.446510000000      10.360950000000      -0.197951215423       0.059675210279      -0.201634328092
106 1       0.016190000000       4.076670000000      14.887150000000      -0.176121172479      -0.048136610183       0.265559826117
107 1       4.220810000000       2.102610000000       8.311970000000      -0.419170836671      -0.100457748337      -0.059382895532
108 1       4.144590000000       6.394720000000      16.877210000000      -0.101390058339      -0.098352155082       0.290332397612
109 1       2.065910000000       8.465590000000      12.807970000000      -0.037690161405       0.303515637364      -0.110210318716
110 1       6.431670000000       8.343610000000      12.705980000000       0.121444335878       0.106618809381      -0.174288810261
111 1       2.143790000000       6.357300000000      14.689870000000       0.060509479887      -0.403780651901      -0.102552187499
112 1       6.175400000000       2.018560000000      10.547030000000      -0.022340337465       0.192767066628       0.216123114538
113 1       4.169130000000       4.300460000000      10.638630000000      -0.276839597565      -0.170834466249       0.051333985728
114 1       4.345650000000       4.212320000000      15.007270000000      -0.062843127483       0.234085201797       0.039193240479
115 1       0.034300000000       2.058320000000      16.900210000000      -0.021016631578       0.248262677585       0.059464342021
116 1       8.470840000000       6.407120000000       8.532160000000       0.325237841288      -0.214388113616       0.147007549237
117 1       0.053080000000       8.371750000000      14.888720000000       0.269782423240       0.082521396483      -0.054481652175
118 1       8.315650000000       8.374150000000      10.740070000000       0.152174342180       0.103927575812       0.054234059268
119 1       4.330840000000       6.474800000000      12.913020000000      -0.101585612590      -0.027402421226      -0.042821405689
120 1       4.221110000000       1.977700000000      12.809470000000      -0.281742749867       0.008749994379      -0.028786891165
121 1       6.471890000000       1.986400000000      14.911450000000       0.232405137499       0.380323757244       0.083312831438
122 1       2.029190000000       6.295440000000      10.565180000000      -0.059663347362      -0.245645816273       0.026158077274
123 1       2.045810000000       4.055890000000      12.610940000000       0.113113045376      -0.022986429045      -0.000931238731
124 1       6.260090000000       4.273150000000      12.885350000000      -0.099537747666      -0.196285564074      -0.200716397639
125 1       6.213000000000       0.111440000000       8.644680000000      -0.138243112974       0.200265969210       0.161589043442
126 1       2.269880000000       0.074940000000      16.903490000000      -0.251777818735      -0.105666899667       0.134687945699
127 1       6.390470000000       6.409900000000      10.681530000000       0.149393038314      -0.071371564506       0.259463781295
128 1       2.135640000000       1.916270000000      14.802010000000      -0.252861973217       0.018685726726      -0.322357016840
129 1       2.311810000000       2.010100000000      19.255700000000      -0.080844269837      -0.048693934194       0.009606715539
130 1       6.432490000000       6.413900000000      23.288490000000      -0.212107507301      -0.031921536320       0.050452816741
131 1       4.389520000000       0.042450000000      23.337270000000      -0.012703298737      -0.310252679377       0.030506361957
132 1       4.439080000000       0.063640000000      19.062130000000       0.050538090315      -0.177975716884      -0.074253293267
133 1       0.120430000000       6.447490000000      21.300820000000       0.059520145956       0.165473025439      -0.226080893208
134 1       0.121120000000       2.109050000000      21.320620000000       0.246391507687       0.017057768818       0.132447013787
135 1       6.492100000000       4.217040000000      25.414340000000      -0.078893565042      -0.044368799251      -0.086773202860
136 1       2.137320000000       4.102120000000      16.991890000000      -0.194541668062       0.060995338426      -0.002157343672
137 1       0.032370000000       4.325780000000      18.986930000000       0.235785314687       0.147092206116      -0.045298576186
138 1       8.466300000000       4.204330000000      23.497110000000       0.104349939821       0.121683747614      -0.003325147511
139 1       4.411140000000       1.978540000000      17.088150000000       0.076917523933       0.159052677885       0.091449230736
140 1       4.209110000000       6.347730000000      25.405540000000      -0.130795589691       0.192322732974      -0.064890931910
141 1       2.118560000000       0.142950000000      21.231530000000       0.023833471272      -0.046151521736       0.043864231354
142 1       6.576100000000       0.026450000000      21.185880000000       0.047613992800      -0.321951072976      -0.212221800952
143 1       2.303740000000       6.372320000000      23.524020000000      -0.025430517990       0.134747575234      -0.065493317289
144 1       6.393210000000       2.030000000000      19.045490000000      -0.082062882160       0.002802209385      -0.111610179685
145 1       4.233230000000       4.173920000000      19.252780000000      -0.034159016367       0.170079803524      -0.299626006498
146 1       4.562560000000       4.549170000000      23.087400000000       0.052558576537      -0.195654111606      -0.077266778371
147 1       8.442530000000       2.279200000000      25.461350000000       0.099359104339       0.043729375950      -0.129144105365
148 1       8.495620000000       6.215250000000      17.105890000000       0.331396926769      -0.083267783010      -0.009166993303
149 1       8.401480000000       0.170590000000      23.280730000000       0.022609207053      -0.193543035421       0.125109191219
150 1       0.059560000000       8.470030000000      19.208860000000      -0.009084060247      -0.319407338131      -0.079915225060
151 1       4.414320000000       6.450220000000      21.274100000000       0.062317398410      -0.277721606440       0.194667607082
152 1       4.307190000000       2.232650000000      21.155150000000      -0.306918839791       0.247557037287      -0.131213350981
153 1       6.502600000000       2.281690000000      23.437360000000      -0.008093921308       0.080026949916       0.142033050198
154 1       2.182300000000       6.410520000000      19.166730000000      -0.133374394394       0.102023044315       0.048855713738
155 1       2.260900000000       4.139620000000      21.382450000000      -0.106755349033       0.071029425177      -0.075924828014
156 1       6.491880000000       4.369630000000      21.274430000000      -0.298559040904       0.118563578662       0.096170886210
157 1       6.340060000000       0.003150000000      17.086990000000       0.079713848287       0.048264591188       0.110331775662
158 1       2.104960000000       0.017680000000       0.011950000000      -0.070007116841      -0.160964338840       0.029073793272
159 1       6.731820000000       6.598170000000      19.374580000000      -0.195643874474       0.053632577155      -0.000785377357
160 1       2.079970000000       2.058910000000      23.286530000000       0.153206646459      -0.065741896725       0.146216799797
