ITEM: TIMESTEP
0
ITEM: NUMBER OF ATOMS
160
ITEM: BOX BOUNDS pp pp pp
0.0000000000000000e+00 8.5039773939999996e+00
0.0000000000000000e+00 8.5039773939999996e+00
0.0000000000000000e+00 2.5511932182999999e+01
ITEM: ATOMS id type c_pe_atom
1 2     -11.092955949523
2 2     -10.207692147493
3 2     -10.313277174075
4 2     -11.208188768125
5 2     -11.263391186604
6 2     -11.123479910220
7 2     -10.281144555725
8 2     -10.370659492776
9 2     -10.161478389164
10 2     -10.289185506102
11 2     -10.259057161068
12 2     -11.344175811699
13 2     -11.137453283425
14 2     -11.237986712906
15 2     -10.274747046657
16 2     -10.566717407094
17 2     -10.236840471598
18 2     -11.066420100272
19 2     -10.263102094725
20 2     -10.490785352648
21 2      -6.800182234137
22 2      -6.257433744182
23 2      -6.575954270273
24 2      -5.515835935279
25 2      -6.237599387828
26 2      -7.112978937011
27 2      -7.202682917037
28 2      -5.385065979167
29 2      -7.425453928709
30 2      -6.316569250422
31 2      -6.172541946431
32 2      -6.411507847454
33 2      -5.755061800932
34 2      -5.807228865496
35 2      -6.292719490628
36 2      -5.715828026341
37 2      -6.904600429896
38 2      -5.823619491818
39 2      -7.207462281918
40 2      -7.169580098390
41 2      -6.603982181523
42 2      -6.920172011690
43 2      -6.220592745534
44 2      -5.976124119369
45 2      -5.779160557226
46 2      -5.743068410134
47 2      -5.854669531372
48 2      -6.844069667811
49 2      -5.867013145460
50 2      -6.907155467560
51 2      -7.041505826772
52 2      -6.121237785880
53 2      -5.711588058566
54 2      -6.195479363577
55 2      -6.293016501075
56 2      -6.526476173983
57 2      -6.270764424595
58 2      -6.242557709849
59 2      -6.297872591819
60 2      -7.195424843979
61 2     -10.720363072789
62 2     -10.635373578597
63 2     -10.448446156775
64 2     -10.656672461508
65 1      -6.038328121857
66 1      -6.291264069605
67 1      -3.004059531267
68 1      -2.508740945099
69 1      -2.445076104311
70 1      -2.677087853858
71 1      -6.089509338897
72 1      -2.584223800222
73 1      -6.224264505633
74 1      -2.534403619090
75 1      -2.469298748203
76 1      -6.711408791577
77 1      -3.243212426677
78 1      -3.055674410639
79 1      -2.563487928820
80 1      -7.058931386956
81 1      -6.187293449370
82 1      -6.030475226506
83 1      -6.313821670045
84 1      -6.420119587852
85 1      -2.955286914956
86 1      -2.589598140313
87 1      -6.011884639048
88 1      -6.411318842525
89 1      -6.486905932603
90 1      -6.107805857446
91 1      -2.576931504713
92 1      -5.769577374029
93 1      -3.078248428241
94 1      -2.532400161356
95 1      -7.146051220925
96 1      -2.575494402340
97 1      -2.604384849817
98 1      -6.809148849199
99 1      -6.705838342894
100 1      -2.968185275557
101 1      -5.835209903886
102 1      -2.883392270359
103 1      -3.316549427776
104 1      -6.202857074835
105 1      -2.627572605112
106 1      -6.052828680560
107 1      -2.642896563732
108 1      -2.879764762779
109 1      -6.427435949449
110 1      -6.045137090548
111 1      -2.658999746397
112 1      -2.539703200494
113 1      -3.138548329309
114 1      -2.404398018516
115 1      -6.066004472476
116 1      -6.152531290716
117 1      -6.396364099134
118 1      -6.049866542989
119 1      -3.060011627152
120 1      -3.385665595208
121 1      -6.384781253305
122 1      -6.571236614945
123 1      -2.729665320922
124 1      -2.304424482790
125 1      -6.624641900291
126 1      -2.798741842221
127 1      -6.392395437996
128 1      -6.409569014162
129 1      -3.206059701536
130 1      -6.043504837570
131 1      -3.175114719769
132 1      -6.102159003472
133 1      -6.271056545681
134 1      -7.143934826727
135 1      -5.820920047916
136 1      -3.341236587670
137 1      -2.672126330161
138 1      -5.837358865710
139 1      -6.179273212735
140 1      -2.604858408485
141 1      -2.640099236127
142 1      -6.303466939913
143 1      -2.556221585525
144 1      -6.063768142016
145 1      -2.233998325412
146 1      -3.294736998180
147 1      -6.103811437135
148 1      -2.589749995038
149 1      -2.671598490492
150 1      -6.337680512979
151 1      -6.086676785402
152 1      -6.748232508277
153 1      -6.003375067490
154 1      -3.083750422831
155 1      -2.305189446519
156 1      -5.888561765629
157 1      -6.011864199692
158 1      -3.202225768997
159 1      -2.788414778929
160 1      -2.904349253409
