ITEM: TIMESTEP
0
ITEM: NUMBER OF ATOMS
40
ITEM: BOX BOUNDS pp pp pp
0.0000000000000000e+00 8.8549439820000000e+00
0.0000000000000000e+00 5.1565118529999996e+00
0.0000000000000000e+00 9.4750502510000008e+00
ITEM: ATOMS id type v_vir_xx v_vir_yy v_vir_zz v_vir_xy v_vir_xz v_vir_yz
1 2      -1.142700680194      -1.513977105037      -1.743318639976       0.643479571194       1.018626848159      -1.040054056042
2 2      -1.142681424538      -1.513994827236      -1.743290442024      -0.643456495316      -1.018620918555      -1.040094521637
3 2      -2.786529584367      -3.301943878207      -2.629398539478      -0.489548848837      -0.330748097086       0.693476708305
4 2      -2.786506323286      -3.302035436871      -2.629388812371       0.489570276271       0.330785110144       0.693530021416
5 2      -1.657150874101      -1.547473316464      -1.363602155494      -0.348518947890       0.702877044261      -0.110787391494
6 2      -1.805317685560      -2.167750756027      -3.451862089945       0.419897238664      -0.583198614804      -1.204219101313
7 2      -1.805285418895      -2.167774870703      -3.451905242626      -0.419828347682       0.583224784083      -1.204197067899
8 2      -1.657103649259      -1.547416195634      -1.363543939514       0.348469056211      -0.702814423345      -0.110782451126
9 2      -2.787408360795      -3.301654717436      -2.624638962226       0.488226795243      -0.329994443420      -0.694785386119
10 2      -2.787465274597      -3.301598693515      -2.624639248555      -0.488232999569       0.329979108355      -0.694733848084
11 2      -1.149097383156      -1.520373202455      -1.746786584978      -0.646447792144       1.021487094137       1.034391816082
12 2      -1.149069054296      -1.520406521128      -1.746824529335       0.646481899221      -1.021531020091       1.034379235587
13 2      -1.650109485795      -1.548310238552      -1.363187710774      -0.348947567420      -0.700481602468       0.108274338075
14 2      -1.798425702265      -2.171314853475      -3.455883711842      -0.420049668362      -0.583953865145       1.201640798747
15 2      -1.798414497107      -2.171289703989      -3.455805322366       0.420025526504       0.583971794313       1.201660488103
16 2      -1.650110794998      -1.548392218000      -1.363191779214       0.348947310044       0.700530736026       0.108294024674
17 1       0.830243125830       1.455004116285       1.015812190620       0.385951496837       0.898286449011      -0.809303811687
18 1       0.482316166570       0.992400251062       1.254321497376      -0.386320690326      -0.964273352949      -0.468882590790
19 1       1.626017190471       1.188434052452       1.176123339567      -0.412175558707      -0.520369371488      -0.791467088621
20 1       2.479417933827       2.685884655070       3.038513261816      -0.230264658062      -0.625553593977      -0.951306722395
21 1       0.830256250438       1.454931156974       1.015748391128      -0.385990250565      -0.898256385276      -0.809246318628
22 1       2.207123324109       2.013016065939       2.218092561629      -0.093303894893      -0.131795302887      -0.347870688616
23 1       1.626015916101       1.188502642161       1.176101542051       0.412180566995       0.520385141534      -0.791503955271
24 1       2.479413353555       2.685907177890       3.038514179039       0.230263889846       0.625513239437      -0.951336580196
25 1       2.210220535799       2.012435206785       2.218793522189      -0.093772490296       0.131594861763       0.348761457351
26 1       0.829672890943       1.449681497605       1.014655267000      -0.383694171200       0.899957637624       0.809763194561
27 1       2.475264940260       2.684025162803       3.036333783005      -0.229519023376       0.626601604187       0.952683165539
28 1       1.623798766461       1.184880270360       1.173922646277      -0.411100224106       0.519396929645       0.789480534207
29 1       0.483193514377       0.996848918730       1.255494191878      -0.389426542698       0.963487376354       0.468372941443
30 1       0.829685002597       1.449746763403       1.014662821783       0.383699122932      -0.899969062469       0.809777289114
31 1       1.701108617690       2.564755879418       2.375920096030      -0.022080348155       0.174576163920      -0.023923713895
32 1       1.701895924834       2.566328305418       2.376198265541      -0.022939702764      -0.173915761610       0.024651269971
33 1       0.483224412025       0.996850229333       1.255506831397       0.389400438248      -0.963520102227       0.468382560547
34 1       2.207152733881       2.012970500203       2.218105493780       0.093299812122       0.131785970966      -0.347877173239
35 1       1.701097197445       2.564742513721       2.375893512510       0.022063251286      -0.174581272869      -0.023929008991
36 1       1.701876256690       2.566275059979       2.376269978940       0.022906195639       0.173921030761       0.024665361340
37 1       2.210222509660       2.012472364299       2.218797998273       0.093773475127      -0.131611044356       0.348750937048
38 1       0.482310324406       0.992416580225       1.254278777363       0.386376565958       0.964284338284      -0.468881408513
39 1       2.475234291835       2.684007290122       3.036333934930       0.229503014156      -0.626584212005       0.952683375270
40 1       1.623782858890       1.184960808262       1.173940387865       0.411088695257      -0.519384731497       0.789505218217
