ITEM: TIMESTEP
0
ITEM: NUMBER OF ATOMS
40
ITEM: BOX BOUNDS pp pp pp
0.0000000000000000e+00 8.8549439820000000e+00
0.0000000000000000e+00 5.1565118529999996e+00
0.0000000000000000e+00 9.4750502510000008e+00
ITEM: ATOMS id type x y z fx fy fz
1 2       1.386380000000       1.598070000000       8.417470000000      -0.074589345639       0.018540995328      -0.015251502597
2 2       3.150810000000       4.176330000000       8.417470000000       0.074638375879       0.018435778113      -0.015260033907
3 2       5.834810000000       0.908340000000       7.568450000000       0.093907585294      -0.157345908375       0.006254495251
4 2       7.557320000000       3.486600000000       7.568450000000      -0.093921849774      -0.157479561429       0.006307850417
5 2       4.770310000000       3.493350000000       5.649170000000      -0.105189543936       0.033511235237       0.133516456878
6 2       1.486730000000       3.539600000000       5.775040000000      -0.090302774273       0.079440832470      -0.170637713969
7 2       3.050450000000       0.961350000000       5.775040000000       0.090385081212       0.079401254701      -0.170665534693
8 2       8.621820000000       0.915090000000       5.649180000000       0.105170984019       0.033527677284       0.133364476085
9 2       1.407340000000       1.669670000000       2.830770000000       0.091567477411       0.156957188522       0.010617446045
10 2       3.129860000000       4.247930000000       2.830770000000      -0.091648683251       0.156805749439       0.010586839077
11 2       5.813110000000       0.980810000000       3.680050000000      -0.074419024669      -0.019411109863      -0.015655666610
12 2       7.579030000000       3.559070000000       3.680040000000       0.074318682862      -0.019509496659      -0.015629644395
13 2       4.194920000000       1.663660000000       0.912000000000       0.106657684829      -0.034389679368       0.130870417107
14 2       5.914030000000       4.195150000000       1.037120000000      -0.088589311950      -0.077647860448      -0.167952548218
15 2       7.478110000000       1.616890000000       1.037120000000       0.088479353199      -0.077506631414      -0.167897152014
16 2       0.342270000000       4.241920000000       0.912000000000      -0.106590259660      -0.034487925362       0.130890057255
17 1       7.393610000000       1.792160000000       4.462550000000      -0.009316632881      -0.085623649191      -0.092700845670
18 1       0.042040000000       0.784000000000       0.052590000000       0.029090937160       0.071080689419       0.157642405641
19 1       7.422930000000       0.089060000000       7.001530000000       0.087397063297       0.068218740873      -0.150168432246
20 1       7.346350000000       5.003730000000       2.141740000000      -0.018659410817       0.116012872416       0.012785795635
21 1       5.998520000000       4.370410000000       4.462550000000       0.009444518395      -0.085512357503      -0.092793204706
22 1       7.508300000000       3.371360000000       9.456190000000       0.079392400576       0.022618734321       0.130134080627
23 1       5.969200000000       2.667320000000       7.001530000000      -0.087379899066       0.068101204060      -0.150138294279
24 1       6.045790000000       2.425480000000       2.141750000000       0.018694743274       0.115931011339       0.012667946710
25 1       1.455920000000       1.785040000000       4.718780000000      -0.079768442091      -0.024245514469       0.129707883895
26 1       2.966830000000       0.786740000000       9.200210000000      -0.008820882641       0.085660488883      -0.091396951833
27 1       1.619780000000       0.151630000000       6.880140000000       0.012217270280      -0.113442269431       0.012435655931
28 1       1.541810000000       5.067150000000       2.264150000000      -0.089840062326      -0.068180069256      -0.150814970738
29 1       0.068030000000       4.373040000000       4.790350000000      -0.026374929229      -0.072547446245       0.158840199210
30 1       1.570360000000       3.365000000000       9.200210000000       0.008781753720       0.085606135339      -0.091391127866
31 1       0.150420000000       2.454050000000       6.951790000000       0.067729757794      -0.059355651626      -0.012483919492
32 1       8.813940000000       2.702000000000       2.214580000000      -0.067593620297       0.060400428869      -0.015633662604
33 1       4.469160000000       1.794790000000       4.790360000000       0.026351092665      -0.072734036528       0.158775227973
34 1       5.883830000000       0.793100000000       9.456190000000      -0.079358890471       0.022683675922       0.130147554669
35 1       4.386770000000       5.032300000000       6.951790000000      -0.067806085341      -0.059303531319      -0.012508033310
36 1       4.578200000000       0.123740000000       2.214580000000       0.067650540409       0.060494460391      -0.015627137288
37 1       3.081270000000       4.363290000000       4.718780000000       0.079762221694      -0.024200949407       0.129739752722
38 1       4.495150000000       3.362260000000       0.052590000000      -0.029072272530       0.071000255074       0.157712759578
39 1       2.917400000000       2.729880000000       6.880150000000      -0.012223040320      -0.113403585574       0.012383590711
40 1       2.995390000000       2.488890000000       2.264150000000       0.089827437196      -0.068102174533      -0.150774514982
