20
Config_type=bulk_beta_phase Weight=1.0 Lattice="12.058643847 0.000000000 -2.934660644 0.000000000 3.073378050 0.000000000 0.000000000 0.000000000 5.855867110" Energy=-170.64451140 Virial="2.64052 -0.00000 0.06495 -0.00000 2.81002 0.00000 0.06495 0.00000 2.72127" pbc="T T T" Properties=species:S:1:pos:R:3:forces:R:3
Ga	      1.91136      1.53669      1.37493         0.030508     -0.000011     -0.019655
Ga	      4.11796      0.00000      3.01361        -0.030465      0.000009      0.019520
Ga	      1.08462      0.00000      4.39015         0.025057      0.000016      0.004412
Ga	      4.94470      1.53669     -0.00162        -0.024970     -0.000017     -0.004215
Ga	      7.94068      0.00000     -0.09240         0.030545      0.000010     -0.019655
Ga	     10.14728      1.53669      1.54628        -0.030446     -0.000011      0.019516
Ga	      7.11394      1.53669      2.92282         0.025068     -0.000016      0.004418
Ga	     10.97402      0.00000     -1.46895        -0.024944      0.000016     -0.004225
O	      5.98492      0.00000      0.04829        -0.007760      0.000019     -0.018005
O	      0.04440      1.53669      4.34025         0.007811     -0.000021      0.017980
O	      2.09126      0.00000      2.79260         0.005400      0.000006     -0.014842
O	      3.93807      1.53669      1.59593        -0.005526     -0.000005      0.015000
O	      4.04547      1.53669      4.23407         0.002055     -0.000009      0.003682
O	      1.98386      0.00000      0.15447        -0.002196      0.000012     -0.003873
O	     12.01424      1.53669     -1.41904        -0.007722     -0.000020     -0.018004
O	      6.07372      0.00000      2.87292         0.007769      0.000019      0.017978
O	      8.12058      1.53669      1.32527         0.005444     -0.000005     -0.014888
O	      9.96739      0.00000      0.12860        -0.005519      0.000006      0.015027
O	     10.07479      0.00000      2.76674         0.002052      0.000010      0.003654
O	      8.01318      1.53669     -1.31286        -0.002161     -0.000009     -0.003824
