ITEM: TIMESTEP
0
ITEM: NUMBER OF ATOMS
160
ITEM: BOX BOUNDS xy xz yz pp pp pp
-2.7801262623470002e+00 1.2452446319501000e+01 0.0000000000000000e+00
0.0000000000000000e+00 1.2331872000000001e+01 -2.7801262623470002e+00
0.0000000000000000e+00 1.1418740792761000e+01 0.0000000000000000e+00
ITEM: ATOMS id type x y z fx fy fz
1 2       1.535766653397       1.541480000000       1.793300464595      -0.050899866573       0.000085749615      -0.159617574886
2 2       3.300389619681       0.000000000000       3.916070561251       0.050941474513      -0.000018757405       0.159555406142
3 2       0.015186149148       0.000000000000       4.537727309620      -0.013345808423      -0.000017888114      -0.008615874230
4 2       4.820970123930       1.541480000000       1.171643716226       0.013353580239       0.000092516304       0.008572230601
5 2       7.761997193177       0.000000000000       1.793297629959      -0.050928941848      -0.000018757458      -0.159551086077
6 2       9.526608077693       1.541480000000       3.916075077184       0.050918341891       0.000085749834       0.159552231562
7 2       6.241416688928       1.541480000000       4.537724474985      -0.013425828965       0.000092516376      -0.008497957245
8 2      11.047190947542       0.000000000000       1.171638515990       0.013353456284      -0.000017888103       0.008634070258
9 2       0.145704468463       1.541480000000       7.502666974508      -0.050914434458       0.000085749756      -0.159553813716
10 2       1.910327434748       0.000000000000       9.625437071165       0.050886861961      -0.000018757434       0.159714955444
11 2      -1.374876035786       0.000000000000      10.247093819534      -0.013355126944      -0.000017888106      -0.008418805608
12 2       3.430907938997       1.541480000000       6.881010226139       0.013389023454       0.000092516242       0.008576796438
13 2       6.371932642643       0.000000000000       7.502673856041      -0.050917421433      -0.000018757467      -0.159715878977
14 2       8.136545892759       1.541480000000       9.625441587097       0.050928822936       0.000085749725       0.159607933517
15 2       4.851352138394       1.541480000000      10.247100701067      -0.013394714490       0.000092516373      -0.008597475919
16 2       9.657126397008       0.000000000000       6.881014742072       0.013328600534      -0.000017888108       0.008564731706
17 2       1.535766653397       4.624450000000       1.793300464595      -0.050892353948       0.000066948133      -0.159621961047
18 2       3.300389619681       3.082970000000       3.916070561251       0.050938958161      -0.000066948572       0.159572753865
19 2       0.015186149148       3.082970000000       4.537727309620      -0.013373871179      -0.000074844403      -0.008616636476
20 2       4.820970123930       4.624450000000       1.171643716226       0.013361140129       0.000074614732       0.008577690216
21 2       7.761997193177       3.082970000000       1.793297629959      -0.050926425749      -0.000066948711      -0.159568433491
22 2       9.526608077693       4.624450000000       3.916075077184       0.050910829134       0.000066948284       0.159556617814
23 2       6.241416688928       4.624450000000       4.537724474985      -0.013433388818       0.000074614821      -0.008503416883
24 2      11.047190947542       3.082970000000       1.171638515990       0.013381519092      -0.000074844384       0.008634832843
25 2       0.145704468463       4.624450000000       7.502666974508      -0.050906921828       0.000066948069      -0.159558199983
26 2       1.910327434748       3.082970000000       9.625437071165       0.050884345577      -0.000066948585       0.159732303550
27 2      -1.374876035786       3.082970000000      10.247093819534      -0.013383189820      -0.000074844389      -0.008419567858
28 2       3.430907938997       4.624450000000       6.881010226139       0.013396583340       0.000074614581       0.008582256053
29 2       6.371932642643       3.082970000000       7.502673856041      -0.050914905019      -0.000066948698      -0.159733226837
30 2       8.136545892759       4.624450000000       9.625441587097       0.050921310240       0.000066948159       0.159612319676
31 2       4.851352138394       4.624450000000      10.247100701067      -0.013402274342       0.000074614724      -0.008602935552
32 2       9.657126397008       3.082970000000       6.881014742072       0.013356663389      -0.000074844391       0.008565493992
33 2       1.535766653397       7.707420000000       1.793300464595      -0.050897349769       0.000000834951      -0.159599008071
34 2       3.300389619681       6.165940000000       3.916070561251       0.050946359624      -0.000090450087       0.159567680109
35 2       0.015186149148       6.165940000000       4.537727309620      -0.013366340004      -0.000096991795      -0.008611289647
36 2       4.820970123930       7.707420000000       1.171643716226       0.013324178618      -0.000001658328       0.008575400336
37 2       7.761997193177       6.165940000000       1.793297629959      -0.050933827308      -0.000090450282      -0.159563359672
38 2       9.526608077693       7.707420000000       3.916075077184       0.050915824708       0.000000834971       0.159533665086
39 2       6.241416688928       7.707420000000       4.537724474985      -0.013396427059      -0.000001658328      -0.008501127181
40 2      11.047190947542       6.165940000000       1.171638515990       0.013373987940      -0.000096991712       0.008629485940
41 2       0.145704468463       7.707420000000       7.502666974508      -0.050911917557       0.000000834978      -0.159535247213
42 2       1.910327434748       6.165940000000       9.625437071165       0.050891747007      -0.000090450177       0.159727230058
43 2      -1.374876035786       6.165940000000      10.247093819534      -0.013375658614      -0.000096991730      -0.008414220917
44 2       3.430907938997       7.707420000000       6.881010226139       0.013359622123      -0.000001658308       0.008579965848
45 2       6.371932642643       6.165940000000       7.502673856041      -0.050922306518      -0.000090450289      -0.159728153231
46 2       8.136545892759       7.707420000000       9.625441587097       0.050926306079       0.000000834971       0.159589366776
47 2       4.851352138394       7.707420000000      10.247100701067      -0.013365312851      -0.000001658316      -0.008600645922
48 2       9.657126397008       6.165940000000       6.881014742072       0.013349132173      -0.000096991776       0.008560147051
49 2       1.535766653397      10.790390000000       1.793300464595      -0.050896139169      -0.000070855610      -0.159622726442
50 2       3.300389619681       9.248900000000       3.916070561251       0.050943060519       0.000093478987       0.159569068784
51 2       0.015186149148       9.248900000000       4.537727309620      -0.013369600402       0.000104094676      -0.008613709975
52 2       4.820970123930      10.790390000000       1.171643716226       0.013363603999      -0.000079843106       0.008574715059
53 2       7.761997193177       9.248900000000       1.793297629959      -0.050930528160       0.000093479138      -0.159564748370
54 2       9.526608077693      10.790390000000       3.916075077184       0.050914614515      -0.000070855729       0.159557383028
55 2       6.241416688928      10.790390000000       4.537724474985      -0.013435852790      -0.000079843161      -0.008500441666
56 2      11.047190947542       9.248900000000       1.171638515990       0.013377248334       0.000104094605       0.008631906300
57 2       0.145704468463      10.790390000000       7.502666974508      -0.050910707075      -0.000070855622      -0.159558965202
58 2       1.910327434748       9.248900000000       9.625437071165       0.050888447893       0.000093479068       0.159728618694
59 2      -1.374876035786       9.248900000000      10.247093819534      -0.013378919014       0.000104094624      -0.008416641240
60 2       3.430907938997      10.790390000000       6.881010226139       0.013399047175      -0.000079843005       0.008579280980
61 2       6.371932642643       9.248900000000       7.502673856041      -0.050919007391       0.000093479170      -0.159729541901
62 2       8.136545892759      10.790390000000       9.625441587097       0.050925095517      -0.000070855621       0.159613085021
63 2       4.851352138394      10.790390000000      10.247100701067      -0.013404738255      -0.000079843116      -0.008599960345
64 2       9.657126397008       9.248900000000       6.881014742072       0.013352392572       0.000104094648       0.008562567397
65 1       5.819562749402       0.000000000000       1.465017681080      -0.013794772860      -0.000018435033       0.042712010408
66 1      -0.983406476324       1.541480000000       4.244353344766       0.013882048863       0.000099245240      -0.042663342279
67 1       1.377707446014       0.000000000000       3.221280508384      -0.041086624061      -0.000007834351       0.082800311981
68 1       3.458448827064       1.541480000000       2.488090517462       0.041084278495       0.000037394635      -0.082759378263
69 1       2.951153019883       1.541480000000       5.086742467919      -0.059134482556       0.000075316924       0.013221170245
70 1       1.885003253195       0.000000000000       0.622628557927       0.059125367430      -0.000015098573      -0.013303631249
71 1      12.045781207413       1.541480000000       1.465022197013      -0.013888802906       0.000099245231       0.042643898517
72 1       5.242824063457       0.000000000000       4.244350510130       0.013798077934      -0.000018435070      -0.042687828981
73 1       7.603935620194       1.541480000000       3.221287389917      -0.041025255656       0.000037394953       0.082638849487
74 1       9.684669650675       0.000000000000       2.488085317226       0.041069357561      -0.000007834436      -0.082712952185
75 1       9.177371477895       0.000000000000       5.086746983852      -0.059132356203      -0.000015098591       0.013204826061
76 1       8.111233792975       1.541480000000       0.622625723291       0.059125343551       0.000075317039      -0.013159422588
77 1       4.429498198868       0.000000000000       7.174393907162      -0.013822402045      -0.000018435001       0.042673512333
78 1      -2.373468661257       1.541480000000       9.953719854679       0.013868481411       0.000099245247      -0.042666186490
79 1      -0.012357104519       0.000000000000       8.930656734466      -0.040991990704      -0.000007834358       0.082623485984
80 1       2.068386642130       1.541480000000       8.197457027375       0.041041161355       0.000037394542      -0.082739045953
81 1       1.561088469350       1.541480000000      10.796118694001      -0.059103502699       0.000075317080       0.013053145402
82 1       0.494941068261       0.000000000000       6.331995067840       0.059158429084      -0.000015098560      -0.013179001650
83 1      10.655719022480       1.541480000000       7.174388706926      -0.013871869452       0.000099245177       0.042680434914
84 1       3.852759512923       0.000000000000       9.953726736212       0.013835707149      -0.000018435039      -0.042708240159
85 1       6.213873435261       1.541480000000       8.930653899830      -0.041110008761       0.000037394887       0.082752546175
86 1       8.294605100142       0.000000000000       8.197461543308       0.041117194995      -0.000007834390      -0.082788213352
87 1       7.787309292961       0.000000000000      10.796113493765      -0.059154060846      -0.000015098578       0.013215440485
88 1       6.721171608042       1.541480000000       6.331992233204       0.059092663030       0.000075317071      -0.013062278200
89 1       5.819562749402       3.082970000000       1.465017681080      -0.013824807046      -0.000093780252       0.042700268200
90 1      -0.983406476324       4.624450000000       4.244353344766       0.013881928470       0.000094062910      -0.042665973610
91 1       1.377707446014       3.082970000000       3.221280508384      -0.041079479835      -0.000031585592       0.082795029055
92 1       3.458448827064       4.624450000000       2.488090517462       0.041081112424       0.000031947729      -0.082757595975
93 1       2.951153019883       4.624450000000       5.086742467919      -0.059138829958       0.000070765948       0.013219756773
94 1       1.885003253195       3.082970000000       0.622628557927       0.059106380188      -0.000070357911      -0.013274937370
95 1      12.045781207413       4.624450000000       1.465022197013      -0.013888682648       0.000094062878       0.042646529832
96 1       5.242824063457       3.082970000000       4.244350510130       0.013828112097      -0.000093780399      -0.042676086838
97 1       7.603935620194       4.624450000000       3.221287389917      -0.041022089426       0.000031948077       0.082637067152
98 1       9.684669650675       3.082970000000       2.488085317226       0.041062213387      -0.000031585971      -0.082707669303
99 1       9.177371477895       3.082970000000       5.086746983852      -0.059113369029      -0.000070358049       0.013176132151
100 1       8.111233792975       4.624450000000       0.622625723291       0.059129690970       0.000070766081      -0.013158009096
101 1       4.429498198868       3.082970000000       7.174393907162      -0.013852436068      -0.000093780063       0.042661769909
102 1      -2.373468661257       4.624450000000       9.953719854679       0.013868361075       0.000094062925      -0.042668817810
103 1      -0.012357104519       3.082970000000       8.930656734466      -0.040984846749      -0.000031585593       0.082618203014
104 1       2.068386642130       4.624450000000       8.197457027375       0.041037995230       0.000031947643      -0.082737263718
105 1       1.561088469350       4.624450000000      10.796118694001      -0.059107850070       0.000070766039       0.013051731782
106 1       0.494941068261       3.082970000000       6.331995067840       0.059139441783      -0.000070357888      -0.013150307768
107 1      10.655719022480       4.624450000000       7.174388706926      -0.013871749093       0.000094062860       0.042683066244
108 1       3.852759512923       3.082970000000       9.953726736212       0.013865741272      -0.000093780215      -0.042696498100
109 1       6.213873435261       4.624450000000       8.930653899830      -0.041106842659       0.000031948048       0.082750763957
110 1       8.294605100142       3.082970000000       8.197461543308       0.041110050601      -0.000031585817      -0.082782930316
111 1       7.787309292961       3.082970000000      10.796113493765      -0.059135073649      -0.000070358004       0.013186746480
112 1       6.721171608042       4.624450000000       6.331992233204       0.059097010388       0.000070766036      -0.013060864574
113 1       5.819562749402       6.165940000000       1.465017681080      -0.013825234079      -0.000100540869       0.042697338976
114 1      -0.983406476324       7.707420000000       4.244353344766       0.013844492436      -0.000002374260      -0.042679918992
115 1       1.377707446014       6.165940000000       3.221280508384      -0.041082606047      -0.000038756427       0.082797160266
116 1       3.458448827064       7.707420000000       2.488090517462       0.041090824299      -0.000000258272      -0.082764732270
117 1       2.951153019883       7.707420000000       5.086742467919      -0.059161404544      -0.000000648444       0.013255996858
118 1       1.885003253195       6.165940000000       0.622628557927       0.059101742397      -0.000076454842      -0.013276427694
119 1      12.045781207413       7.707420000000       1.465022197013      -0.013851246841      -0.000002374261       0.042660475597
120 1       5.242824063457       6.165940000000       4.244350510130       0.013828538992      -0.000100541045      -0.042673157637
121 1       7.603935620194       7.707420000000       3.221287389917      -0.041031801315      -0.000000258271       0.082644203617
122 1       9.684669650675       6.165940000000       2.488085317226       0.041065339720      -0.000038756840      -0.082709800573
123 1       9.177371477895       6.165940000000       5.086746983852      -0.059108731215      -0.000076454891       0.013177622477
124 1       8.111233792975       7.707420000000       0.622625723291       0.059152265496      -0.000000648439      -0.013194249044
125 1       4.429498198868       6.165940000000       7.174393907162      -0.013852863191      -0.000100540671       0.042658840677
126 1      -2.373468661257       7.707420000000       9.953719854679       0.013830925016      -0.000002374262      -0.042682763136
127 1      -0.012357104519       6.165940000000       8.930656734466      -0.040987973037      -0.000038756433       0.082620334173
128 1       2.068386642130       7.707420000000       8.197457027375       0.041047706740      -0.000000258286      -0.082744400068
129 1       1.561088469350       7.707420000000      10.796118694001      -0.059130424751      -0.000000648430       0.013087971815
130 1       0.494941068261       6.165940000000       6.331995067840       0.059134803989      -0.000076454688      -0.013151798016
131 1      10.655719022480       7.707420000000       7.174388706926      -0.013834312999      -0.000002374258       0.042697011719
132 1       3.852759512923       6.165940000000       9.953726736212       0.013866168297      -0.000100540851      -0.042693568918
133 1       6.213873435261       7.707420000000       8.930653899830      -0.041116554817      -0.000000258277       0.082757900427
134 1       8.294605100142       6.165940000000       8.197461543308       0.041113176901      -0.000038756631      -0.082785061410
135 1       7.787309292961       6.165940000000      10.796113493765      -0.059130435862      -0.000076454809       0.013188236793
136 1       6.721171608042       7.707420000000       6.331992233204       0.059119584966      -0.000000648431      -0.013097104580
137 1       5.819562749402       9.248900000000       1.465017681080      -0.013825401519       0.000107432850       0.042698253890
138 1      -0.983406476324      10.790390000000       4.244353344766       0.013889915540      -0.000085610529      -0.042661046746
139 1       1.377707446014       9.248900000000       3.221280508384      -0.041081220695       0.000041721279       0.082796645649
140 1       3.458448827064      10.790390000000       2.488090517462       0.041081195931      -0.000032629049      -0.082757818421
141 1       2.951153019883      10.790390000000       5.086742467919      -0.059131059922      -0.000063636870       0.013213542962
142 1       1.885003253195       9.248900000000       0.622628557927       0.059103398141       0.000080113714      -0.013275876794
143 1      12.045781207413      10.790390000000       1.465022197013      -0.013896669560      -0.000085610515       0.042641602914
144 1       5.242824063457       9.248900000000       4.244350510130       0.013828706475       0.000107433033      -0.042674072545
145 1       7.603935620194      10.790390000000       3.221287389917      -0.041022173041      -0.000032629311       0.082637289605
146 1       9.684669650675       9.248900000000       2.488085317226       0.041063954319       0.000041721701      -0.082709285930
147 1       9.177371477895       9.248900000000       5.086746983852      -0.059110386961       0.000080113746       0.013177071571
148 1       8.111233792975      10.790390000000       0.622625723291       0.059121920924      -0.000063636943      -0.013151795323
149 1       4.429498198868       9.248900000000       7.174393907162      -0.013853030618       0.000107432652       0.042659755591
150 1      -2.373468661257      10.790390000000       9.953719854679       0.013876348094      -0.000085610531      -0.042663890992
151 1      -0.012357104519       9.248900000000       8.930656734466      -0.040986587652       0.000041721295       0.082619819540
152 1       2.068386642130      10.790390000000       8.197457027375       0.041038078846      -0.000032629041      -0.082737486123
153 1       1.561088469350      10.790390000000      10.796118694001      -0.059100080030      -0.000063636965       0.013045518093
154 1       0.494941068261       9.248900000000       6.331995067840       0.059136459737       0.000080113548      -0.013151247132
155 1      10.655719022480      10.790390000000       7.174388706926      -0.013879736129      -0.000085610482       0.042678139379
156 1       3.852759512923       9.248900000000       9.953726736212       0.013866335749       0.000107432833      -0.042694483821
157 1       6.213873435261      10.790390000000       8.930653899830      -0.041106926129      -0.000032629274       0.082750986329
158 1       8.294605100142       9.248900000000       8.197461543308       0.041111791522       0.000041721500      -0.082784546822
159 1       7.787309292961       9.248900000000      10.796113493765      -0.059132091612       0.000080113657       0.013187685886
160 1       6.721171608042      10.790390000000       6.331992233204       0.059089240383      -0.000063636959      -0.013054650892
