ITEM: TIMESTEP
0
ITEM: NUMBER OF ATOMS
160
ITEM: BOX BOUNDS xy xz yz pp pp pp
-2.7801262623470002e+00 1.2452446319501000e+01 0.0000000000000000e+00
0.0000000000000000e+00 1.2331872000000001e+01 -2.7801262623470002e+00
0.0000000000000000e+00 1.1418740792761000e+01 0.0000000000000000e+00
ITEM: ATOMS id type c_pe_atom
1 2      -4.988309393122
2 2      -4.988312332509
3 2      -4.479777663416
4 2      -4.479780770417
5 2      -4.988300793531
6 2      -4.988299455061
7 2      -4.479775935384
8 2      -4.479772959470
9 2      -4.988309426306
10 2      -4.988316148457
11 2      -4.479780051461
12 2      -4.479788659472
13 2      -4.988307740337
14 2      -4.988300692685
15 2      -4.479776086405
16 2      -4.479770898951
17 2      -4.988312106767
18 2      -4.988313985052
19 2      -4.479783446571
20 2      -4.479783865966
21 2      -4.988302445918
22 2      -4.988302168756
23 2      -4.479779030945
24 2      -4.479778742603
25 2      -4.988312139966
26 2      -4.988317800748
27 2      -4.479785834612
28 2      -4.479791755024
29 2      -4.988309392637
30 2      -4.988303406368
31 2      -4.479779181946
32 2      -4.479776682098
33 2      -4.988308966048
34 2      -4.988309685151
35 2      -4.479778870541
36 2      -4.479775492978
37 2      -4.988298145961
38 2      -4.988299028215
39 2      -4.479770657970
40 2      -4.479774166571
41 2      -4.988308999465
42 2      -4.988313500826
43 2      -4.479781258579
44 2      -4.479783382066
45 2      -4.988305092673
46 2      -4.988300265611
47 2      -4.479770808969
48 2      -4.479772106069
49 2      -4.988308776254
50 2      -4.988309715092
51 2      -4.479779139709
52 2      -4.479781475996
53 2      -4.988298175912
54 2      -4.988298838157
55 2      -4.479776640958
56 2      -4.479774435738
57 2      -4.988308809394
58 2      -4.988313530771
59 2      -4.479781527748
60 2      -4.479789365050
61 2      -4.988305122625
62 2      -4.988300075826
63 2      -4.479776791977
64 2      -4.479772375234
65 1     -11.159452656220
66 1     -11.159450820845
67 1     -10.965783519848
68 1     -10.965783084572
69 1     -11.064185786867
70 1     -11.064180416201
71 1     -11.159450343904
72 1     -11.159452551447
73 1     -10.965793223573
74 1     -10.965783484274
75 1     -11.064197954823
76 1     -11.064195029484
77 1     -11.159451630766
78 1     -11.159454117547
79 1     -10.965786973090
80 1     -10.965788723297
81 1     -11.064169314017
82 1     -11.064193920273
83 1     -11.159454427267
84 1     -11.159452244444
85 1     -10.965793073647
86 1     -10.965793410582
87 1     -11.064199794058
88 1     -11.064178515461
89 1     -11.159447318884
90 1     -11.159450255255
91 1     -10.965781755197
92 1     -10.965781644021
93 1     -11.064184730436
94 1     -11.064173869594
95 1     -11.159449778322
96 1     -11.159447214103
97 1     -10.965791782980
98 1     -10.965781719721
99 1     -11.064191408306
100 1     -11.064193973056
101 1     -11.159446293465
102 1     -11.159453551955
103 1     -10.965785208462
104 1     -10.965787282756
105 1     -11.064168257616
106 1     -11.064187373793
107 1     -11.159453861666
108 1     -11.159446907129
109 1     -10.965791633078
110 1     -10.965791646003
111 1     -11.064193247556
112 1     -11.064177459071
113 1     -11.159448556875
114 1     -11.159457236323
115 1     -10.965784004380
116 1     -10.965784412137
117 1     -11.064193387873
118 1     -11.064175766849
119 1     -11.159456759409
120 1     -11.159448452077
121 1     -10.965794550971
122 1     -10.965783968928
123 1     -11.064193305591
124 1     -11.064202630472
125 1     -11.159447531459
126 1     -11.159460533021
127 1     -10.965787457665
128 1     -10.965790050896
129 1     -11.064176915243
130 1     -11.064189271098
131 1     -11.159460842708
132 1     -11.159448145120
133 1     -10.965794401076
134 1     -10.965793895222
135 1     -11.064195144863
136 1     -11.064186116749
137 1     -11.159448794783
138 1     -11.159450152892
139 1     -10.965783964602
140 1     -10.965783146030
141 1     -11.064184846389
142 1     -11.064175914736
143 1     -11.159449675950
144 1     -11.159448689989
145 1     -10.965793285056
146 1     -10.965783929143
147 1     -11.064193453472
148 1     -11.064194089014
149 1     -11.159447769363
150 1     -11.159453449596
151 1     -10.965787417884
152 1     -10.965788784754
153 1     -11.064168373505
154 1     -11.064189418972
155 1     -11.159453759318
156 1     -11.159448383025
157 1     -10.965793135131
158 1     -10.965793855438
159 1     -11.064195292738
160 1     -11.064177574942
