160
Config_type=bulk_beta_phase Weight=1.0 Lattice="12.099007000 0.000000000 -2.945751000 0.000000000 12.331872000 0.000000000 0.000000000 0.000000000 11.752308000" Energy=-1365.34791720 Virial="4.17189 -0.00001 0.32926 -0.00001 5.32860 -0.00001 0.32926 -0.00001 4.59489" pbc="T T T" Properties=species:S:1:pos:R:3:forces:R:3
Ga	      1.91640      1.54148      1.37910         0.005103      0.000066      0.005878
Ga	      4.13310      0.00000      3.02418        -0.011103     -0.000010     -0.006289
Ga	      1.08820      0.00000      4.40534        -0.004124     -0.000018     -0.009329
Ga	      4.96130      1.54148     -0.00206         0.005077      0.000107      0.009936
Ga	      7.96591      0.00000     -0.09378         0.011078     -0.000011      0.006287
Ga	     10.18260      1.54148      1.55131        -0.005051      0.000072     -0.005951
Ga	      7.13771      1.54148      2.93246        -0.005138      0.000110     -0.009833
Ga	     11.01080      0.00000     -1.47494         0.004160     -0.000020      0.009359
Ga	      1.91640      1.54148      7.25525         0.005095      0.000072      0.005942
Ga	      4.13310      0.00000      8.90033        -0.011111     -0.000013     -0.006123
Ga	      1.08820      0.00000     10.28149        -0.004089     -0.000015     -0.009114
Ga	      4.96130      1.54148      5.87409         0.005098      0.000111      0.009934
Ga	      7.96591      0.00000      5.78238         0.011056     -0.000012      0.006124
Ga	     10.18260      1.54148      7.42746        -0.005035      0.000073     -0.005907
Ga	      7.13771      1.54148      8.80862        -0.005123      0.000110     -0.009954
Ga	     11.01080      0.00000      4.40122         0.004119     -0.000017      0.009268
Ga	      1.91640      4.62445      1.37910         0.005112      0.000049      0.005875
Ga	      4.13310      3.08297      3.02418        -0.011090     -0.000049     -0.006274
Ga	      1.08820      3.08297      4.40534        -0.004166     -0.000090     -0.009322
Ga	      4.96130      4.62445     -0.00206         0.005081      0.000088      0.009934
Ga	      7.96591      3.08297     -0.09378         0.011072     -0.000050      0.006275
Ga	     10.18260      4.62445      1.55131        -0.005063      0.000044     -0.005952
Ga	      7.13771      4.62445      2.93246        -0.005142      0.000085     -0.009833
Ga	     11.01080      3.08297     -1.47494         0.004193     -0.000086      0.009352
Ga	      1.91640      4.62445      7.25525         0.005102      0.000048      0.005941
Ga	      4.13310      3.08297      8.90033        -0.011106     -0.000044     -0.006114
Ga	      1.08820      3.08297     10.28149        -0.004118     -0.000087     -0.009110
Ga	      4.96130      4.62445      5.87409         0.005109      0.000084      0.009937
Ga	      7.96591      3.08297      5.78238         0.011049     -0.000047      0.006112
Ga	     10.18260      4.62445      7.42746        -0.005031      0.000043     -0.005899
Ga	      7.13771      4.62445      8.80862        -0.005142      0.000085     -0.009956
Ga	     11.01080      3.08297      4.40122         0.004152     -0.000087      0.009265
Ga	      1.91640      7.70742      1.37910         0.005119     -0.000005      0.005889
Ga	      4.13310      6.16594      3.02418        -0.011089     -0.000078     -0.006279
Ga	      1.08820      6.16594      4.40534        -0.004146     -0.000115     -0.009321
Ga	      4.96130      7.70742     -0.00206         0.005045     -0.000003      0.009943
Ga	      7.96591      6.16594     -0.09378         0.011065     -0.000079      0.006278
Ga	     10.18260      7.70742      1.55131        -0.005065     -0.000002     -0.005968
Ga	      7.13771      7.70742      2.93246        -0.005107     -0.000004     -0.009842
Ga	     11.01080      6.16594     -1.47494         0.004181     -0.000117      0.009352
Ga	      1.91640      7.70742      7.25525         0.005113     -0.000008      0.005955
Ga	      4.13310      6.16594      8.90033        -0.011100     -0.000079     -0.006117
Ga	      1.08820      6.16594     10.28149        -0.004110     -0.000120     -0.009108
Ga	      4.96130      7.70742      5.87409         0.005065     -0.000001      0.009941
Ga	      7.96591      6.16594      5.78238         0.011039     -0.000083      0.006115
Ga	     10.18260      7.70742      7.42746        -0.005042     -0.000002     -0.005913
Ga	      7.13771      7.70742      8.80862        -0.005094     -0.000003     -0.009961
Ga	     11.01080      6.16594      4.40122         0.004145     -0.000120      0.009265
Ga	      1.91640     10.79039      1.37910         0.005107     -0.000052      0.005874
Ga	      4.13310      9.24890      3.02418        -0.011089      0.000078     -0.006278
Ga	      1.08820      9.24890      4.40534        -0.004160      0.000121     -0.009322
Ga	      4.96130     10.79039     -0.00206         0.005084     -0.000090      0.009935
Ga	      7.96591      9.24890     -0.09378         0.011065      0.000076      0.006276
Ga	     10.18260     10.79039      1.55131        -0.005055     -0.000050     -0.005952
Ga	      7.13771     10.79039      2.93246        -0.005143     -0.000088     -0.009831
Ga	     11.01080      9.24890     -1.47494         0.004188      0.000120      0.009356
Ga	      1.91640     10.79039      7.25525         0.005096     -0.000052      0.005934
Ga	      4.13310      9.24890      8.90033        -0.011101      0.000080     -0.006113
Ga	      1.08820      9.24890     10.28149        -0.004116      0.000122     -0.009107
Ga	      4.96130     10.79039      5.87409         0.005113     -0.000091      0.009935
Ga	      7.96591      9.24890      5.78238         0.011039      0.000081      0.006112
Ga	     10.18260     10.79039      7.42746        -0.005035     -0.000051     -0.005897
Ga	      7.13771     10.79039      8.80862        -0.005142     -0.000088     -0.009951
Ga	     11.01080      9.24890      4.40122         0.004150      0.000123      0.009264
O	      6.00095      0.00000      0.04676         0.003975      0.000003      0.004716
O	      0.04855      1.54148      4.35652        -0.004642      0.000145     -0.000978
O	      2.10063      0.00000      2.80394         0.000685      0.000000     -0.003046
O	      3.94887      1.54148      1.59934        -0.002154      0.000030      0.000095
O	      4.07071      1.54148      4.24424        -0.017080      0.000053      0.006580
O	      1.97879      0.00000      0.15904         0.016358     -0.000006     -0.001164
O	     12.05045      1.54148     -1.42611         0.004617      0.000112      0.000953
O	      6.09806      0.00000      2.88364        -0.003965      0.000000     -0.004696
O	      8.15014      1.54148      1.33107         0.002137      0.000042     -0.000246
O	      9.99837      0.00000      0.12646        -0.000641     -0.000024      0.003099
O	     10.12021      0.00000      2.77137        -0.016410     -0.000030      0.001010
O	      8.02830      1.54148     -1.31384         0.017088      0.000068     -0.006481
O	      6.00095      0.00000      5.92292         0.003925     -0.000029      0.004690
O	      0.04855      1.54148     10.23267        -0.004641      0.000076     -0.000967
O	      2.10063      0.00000      8.68010         0.000700     -0.000007     -0.003182
O	      3.94887      1.54148      7.47549        -0.002194      0.000031      0.000140
O	      4.07071      1.54148     10.12040        -0.017097      0.000052      0.006427
O	      1.97879      0.00000      6.03519         0.016454     -0.000007     -0.000968
O	     12.05045      1.54148      4.45004         0.004673      0.000118      0.000987
O	      6.09806      0.00000      8.75980        -0.003927     -0.000045     -0.004730
O	      8.15014      1.54148      7.20722         0.002107      0.000021     -0.000121
O	      9.99837      0.00000      6.00262        -0.000617     -0.000001      0.003042
O	     10.12021      0.00000      8.64752        -0.016417     -0.000005      0.001038
O	      8.02830      1.54148      4.56231         0.017069      0.000045     -0.006429
O	      6.00095      3.08297      0.04676         0.003944     -0.000116      0.004713
O	      0.04855      4.62445      4.35652        -0.004654      0.000074     -0.000980
O	      2.10063      3.08297      2.80394         0.000660     -0.000018     -0.003021
O	      3.94887      4.62445      1.59934        -0.002179      0.000029      0.000110
O	      4.07071      4.62445      4.24424        -0.017083      0.000055      0.006585
O	      1.97879      3.08297      0.15904         0.016368     -0.000041     -0.001089
O	     12.05045      4.62445     -1.42611         0.004618      0.000107      0.000956
O	      6.09806      3.08297      2.88364        -0.003929     -0.000131     -0.004690
O	      8.15014      4.62445      1.33107         0.002175      0.000018     -0.000270
O	      9.99837      3.08297      0.12646        -0.000650     -0.000015      0.003091
O	     10.12021      3.08297      2.77137        -0.016394     -0.000037      0.001003
O	      8.02830      4.62445     -1.31384         0.017086      0.000037     -0.006502
O	      6.00095      3.08297      5.92292         0.003877     -0.000096      0.004683
O	      0.04855      4.62445     10.23267        -0.004656      0.000104     -0.000969
O	      2.10063      3.08297      8.68010         0.000724     -0.000034     -0.003225
O	      3.94887      4.62445      7.47549        -0.002191      0.000033      0.000139
O	      4.07071      4.62445     10.12040        -0.017108      0.000059      0.006404
O	      1.97879      3.08297      6.03519         0.016425     -0.000056     -0.000989
O	     12.05045      4.62445      4.45004         0.004655      0.000108      0.000987
O	      6.09806      3.08297      8.75980        -0.003898     -0.000088     -0.004726
O	      8.15014      4.62445      7.20722         0.002092      0.000041     -0.000110
O	      9.99837      3.08297      6.00262        -0.000604     -0.000037      0.003033
O	     10.12021      3.08297      8.64752        -0.016406     -0.000065      0.001029
O	      8.02830      4.62445      4.56231         0.017089      0.000070     -0.006395
O	      6.00095      6.16594      0.04676         0.003935     -0.000108      0.004710
O	      0.04855      7.70742      4.35652        -0.004678      0.000030     -0.000986
O	      2.10063      6.16594      2.80394         0.000675     -0.000044     -0.003052
O	      3.94887      7.70742      1.59934        -0.002161      0.000014      0.000118
O	      4.07071      7.70742      4.24424        -0.017101      0.000017      0.006578
O	      1.97879      6.16594      0.15904         0.016362     -0.000068     -0.001092
O	     12.05045      7.70742     -1.42611         0.004638      0.000011      0.000961
O	      6.09806      6.16594      2.88364        -0.003934     -0.000084     -0.004687
O	      8.15014      7.70742      1.33107         0.002138      0.000011     -0.000242
O	      9.99837      6.16594      0.12646        -0.000627     -0.000043      0.003086
O	     10.12021      6.16594      2.77137        -0.016382     -0.000073      0.001016
O	      8.02830      7.70742     -1.31384         0.017105      0.000019     -0.006510
O	      6.00095      6.16594      5.92292         0.003897     -0.000123      0.004680
O	      0.04855      7.70742     10.23267        -0.004695      0.000019     -0.000976
O	      2.10063      6.16594      8.68010         0.000723     -0.000030     -0.003218
O	      3.94887      7.70742      7.47549        -0.002198      0.000005      0.000159
O	      4.07071      7.70742     10.12040        -0.017121      0.000010      0.006422
O	      1.97879      6.16594      6.03519         0.016434     -0.000055     -0.000957
O	     12.05045      7.70742      4.45004         0.004696      0.000003      0.000995
O	      6.09806      6.16594      8.75980        -0.003902     -0.000122     -0.004723
O	      8.15014      7.70742      7.20722         0.002103     -0.000004     -0.000123
O	      9.99837      6.16594      6.00262        -0.000609     -0.000027      0.003016
O	     10.12021      6.16594      8.64752        -0.016397     -0.000046      0.001038
O	      8.02830      7.70742      4.56231         0.017088     -0.000010     -0.006443
O	      6.00095      9.24890      0.04676         0.003955      0.000106      0.004709
O	      0.04855     10.79039      4.35652        -0.004651     -0.000134     -0.000978
O	      2.10063      9.24890      2.80394         0.000676      0.000028     -0.003008
O	      3.94887     10.79039      1.59934        -0.002161     -0.000040      0.000134
O	      4.07071     10.79039      4.24424        -0.017077     -0.000065      0.006569
O	      1.97879      9.24890      0.15904         0.016349      0.000053     -0.001130
O	     12.05045     10.79039     -1.42611         0.004588     -0.000116      0.000949
O	      6.09806      9.24890      2.88364        -0.003945      0.000098     -0.004687
O	      8.15014     10.79039      1.33107         0.002171     -0.000037     -0.000264
O	      9.99837      9.24890      0.12646        -0.000633      0.000046      0.003074
O	     10.12021      9.24890      2.77137        -0.016383      0.000079      0.001017
O	      8.02830     10.79039     -1.31384         0.017075     -0.000060     -0.006507
O	      6.00095      9.24890      5.92292         0.003888      0.000132      0.004683
O	      0.04855     10.79039     10.23267        -0.004608     -0.000085     -0.000965
O	      2.10063      9.24890      8.68010         0.000714      0.000036     -0.003195
O	      3.94887     10.79039      7.47549        -0.002186     -0.000037      0.000142
O	      4.07071     10.79039     10.12040        -0.017109     -0.000060      0.006384
O	      1.97879      9.24890      6.03519         0.016420      0.000057     -0.000988
O	     12.05045     10.79039      4.45004         0.004651     -0.000114      0.000988
O	      6.09806      9.24890      8.75980        -0.003898      0.000138     -0.004724
O	      8.15014     10.79039      7.20722         0.002085     -0.000026     -0.000100
O	      9.99837      9.24890      6.00262        -0.000599      0.000030      0.003018
O	     10.12021      9.24890      8.64752        -0.016393      0.000055      0.001045
O	      8.02830     10.79039      4.56231         0.017079     -0.000042     -0.006397
