ITEM: TIMESTEP
0
ITEM: NUMBER OF ATOMS
20
ITEM: BOX BOUNDS xy xz yz pp pp pp
-1.3986040388759999e+00 1.2535209795366001e+01 0.0000000000000000e+00
0.0000000000000000e+00 3.1042352590000002e+00 -1.3986040388759999e+00
0.0000000000000000e+00 5.7469227399280003e+00 0.0000000000000000e+00
ITEM: ATOMS id type c_pe_atom
1 2      -5.095954652000
2 2      -5.095954332742
3 2      -4.607835186550
4 2      -4.607838524569
5 2      -5.095951338707
6 2      -5.095948072225
7 2      -4.607837223607
8 2      -4.607828145538
9 1     -11.074408570241
10 1     -11.074402656112
11 1     -10.892046827800
12 1     -10.892038048557
13 1     -10.979069819907
14 1     -10.979056086726
15 1     -11.074403186472
16 1     -11.074397720589
17 1     -10.892044019067
18 1     -10.892027121548
19 1     -10.979064020092
20 1     -10.979053019381
