160
Config_type=bulk_gamma_phase Weight=1.0 Lattice="8.442070548 0.000000000 0.000000000 0.000000000 8.442070548 0.000000000 0.000000000 0.000000000 25.326211644" Energy=-1360.28075420 Virial="-39.59236 0.02291 -19.76084 0.02291 -40.28532 -2.32867 -19.76084 -2.32867 -36.95127" pbc="T T T" Properties=species:S:1:pos:R:3:forces:R:3
Ga	      1.22325      5.24027     22.27657         0.019463      0.013871     -0.006009
Ga	      5.24612      0.85275     13.78499        -0.006217      0.007630     -0.005532
Ga	      7.21716      7.46360      7.44872         0.006142      0.003664     -0.007037
Ga	      7.34865      7.19251     15.89773         0.007262     -0.003247      0.008223
Ga	      5.27038      5.29096      0.99074        -0.012977     -0.015253     -0.007380
Ga	      3.05564      3.23122      7.26752        -0.002071      0.004082      0.000457
Ga	      0.96227      1.05585      1.09673        -0.007844      0.003536     -0.024484
Ga	      5.21193      1.03434      5.28550         0.012231      0.014542      0.002052
Ga	      3.20901      2.99222     15.78447        -0.012455      0.005244      0.005538
Ga	      5.42780      1.12666     22.09080        -0.016190      0.009010      0.004123
Ga	      3.16649      7.31448     11.60821         0.003277     -0.020549      0.007306
Ga	      7.48561      3.22386     19.97448        -0.013071      0.006264     -0.005581
Ga	      1.02932      5.14143     13.59444        -0.004486     -0.020142      0.006593
Ga	      7.38642      3.24916      3.23093        -0.001082     -0.000779      0.018463
Ga	      5.13764      5.37245      9.45070         0.017266      0.008074     -0.008101
Ga	      7.42054      7.50285     24.29842         0.002370      0.010364      0.005748
Ga	      3.21916      7.51179     20.08903         0.006678     -0.001801      0.005871
Ga	      0.92171      1.08328      9.60328         0.008137      0.003867     -0.006511
Ga	      3.25280      7.48542      3.12916        -0.003480      0.008578     -0.014628
Ga	      1.18988      1.04093     17.96697         0.010463     -0.008740     -0.012605
Ga	      3.96553      0.19066      8.45262         0.011798     -0.036383     -0.011058
Ga	      6.18712      6.16619     12.64159        -0.035614     -0.005213      0.011753
Ga	      2.17823      2.14663     21.12048        -0.000313     -0.019131      0.002884
Ga	      6.46020      6.35113     21.07746         0.023367      0.007661      0.026574
Ga	      1.98092      6.45619      8.35502        -0.005487      0.007129      0.000825
Ga	      8.38927      2.08054      6.29328         0.010832      0.012336     -0.004164
Ga	      2.01248      2.11491      4.25843         0.000661     -0.000808     -0.013977
Ga	      0.05698      2.03273     14.74275        -0.009754     -0.011595     -0.004419
Ga	      0.16268      6.25967     18.94731        -0.006211     -0.007090      0.009787
Ga	      6.32039      0.05532      2.11923         0.012753     -0.017953     -0.008549
Ga	      6.14536      0.07243     10.61354         0.001630     -0.007091     -0.010508
Ga	      4.20501      2.21625     18.94595        -0.006463     -0.006736      0.023444
Ga	      6.46332      8.41042     19.00387         0.024565      0.027551      0.006212
Ga	      6.40976      2.06026     16.86318        -0.003105      0.008606     -0.010155
Ga	      0.16220      2.07836     23.27464         0.003501      0.022155     -0.017408
Ga	      2.05491      8.23359     14.86661         0.015226     -0.016170     -0.009834
Ga	      4.04104      6.08101     14.78084         0.018774     -0.002967     -0.012296
Ga	      6.29015      4.23529      6.36229         0.018100      0.011649     -0.014865
Ga	      4.24903      6.43518     23.25514        -0.010731     -0.003049     -0.006672
Ga	      0.09813      4.22055     16.87810        -0.012342     -0.007507      0.023530
Ga	      2.10038      4.27548      2.11017         0.015817     -0.023069      0.000471
Ga	      4.16261      4.34394     21.05018         0.007380      0.009655      0.012176
Ga	      4.17344      8.25111     16.94431         0.004925     -0.004019     -0.001475
Ga	      6.36438      4.27416     23.15865         0.017650     -0.003435     -0.006686
Ga	      8.37838      6.26678     10.52690         0.016145      0.011163     -0.015858
Ga	      8.42846      8.36682     12.68998         0.002806      0.004081      0.000227
Ga	      0.02127      4.31538      0.04484         0.006248     -0.002243     -0.008426
Ga	      6.26425      4.09719     14.74635         0.002069     -0.016135     -0.016606
Ga	      4.18189      4.22401      4.17527         0.021133     -0.004529      0.016752
Ga	      2.14065      2.05090     12.59203         0.008481      0.010276      0.003444
Ga	      2.10917      4.14993     10.56909        -0.012204      0.003214     -0.014027
Ga	      0.04081      6.49242      2.21263        -0.010890      0.001850      0.004395
Ga	      0.20487      8.40182     21.20643        -0.006595     -0.004668     -0.010464
Ga	      4.15650      2.05070      2.00045         0.002252      0.006134     -0.011633
Ga	      6.25595      2.06541     25.27734         0.003015      0.003593      0.002887
Ga	      8.42187      4.16632      8.44091        -0.005284      0.027158     -0.010144
Ga	      6.13096      2.17992      8.54293        -0.005091     -0.010709     -0.002803
Ga	      4.05485      6.47254      6.27605        -0.005553      0.024975      0.012153
Ga	      6.38913      6.48009      4.27855        -0.004518     -0.030328     -0.011312
Ga	      2.19968      6.43407     25.29744        -0.009590      0.001973     -0.012276
Ga	      5.20119      3.14463     11.65144        -0.005403     -0.019424     -0.011225
Ga	      3.20285      1.07583     24.24722        -0.015361     -0.003499      0.014131
Ga	      3.18787      5.21447     17.93299        -0.009571      0.007275     -0.006451
Ga	      0.99603      7.46106      5.27463        -0.001876      0.014149     -0.008718
O	      2.13910      2.15675      2.13488         0.001426      0.001660      0.003029
O	      6.20379      6.27837      6.29388         0.001483     -0.007238     -0.006211
O	      4.29900      8.36849      6.48060         0.012091     -0.006729      0.002560
O	      4.34307      0.13110      2.11948        -0.006133     -0.002894      0.004645
O	      8.31778      6.43401      4.14838        -0.006304      0.003926     -0.005197
O	      0.03653      2.21618      4.31074        -0.001723      0.003014     -0.003913
O	      6.23738      4.19373      8.41329        -0.001006     -0.003178      0.011651
O	      1.90973      4.48621      0.24602        -0.001314     -0.001783      0.010949
O	      8.42948      4.38938      2.09644        -0.002212     -0.000246     -0.001165
O	      8.16926      4.03585      6.57864        -0.012416     -0.000209      0.010614
O	      4.32592      2.10360      0.06100         0.001201     -0.004979      0.005154
O	      4.04640      6.42501      8.30873         0.005600     -0.001268     -0.001617
O	      2.12572      0.07925      4.20670         0.000738      0.000304      0.003464
O	      6.18697      8.38432      4.11984        -0.005360     -0.002918      0.006020
O	      2.12157      6.46260      6.41271         0.005883      0.009039     -0.002137
O	      6.27153      2.13605      2.04624         0.004371     -0.008254      0.007779
O	      4.21919      4.15325      2.12059        -0.004672     -0.002514      0.002203
O	      4.25409      4.36359      6.21548        -0.003131     -0.006542      0.002601
O	      8.24354      2.11676      8.43350        -0.011432      0.008287     -0.007911
O	      0.04189      6.35497      0.08529        -0.000480     -0.007998     -0.001103
O	      8.30154      0.06559      6.35351        -0.000005      0.003189     -0.005020
O	      8.30164      8.41357      2.09920         0.006920     -0.000377     -0.001902
O	      4.27157      6.27930      4.27131        -0.007510      0.004147     -0.014509
O	      4.15692      2.18364      4.14533        -0.013236      0.010056     -0.008584
O	      6.30320      2.17643      6.39892         0.007287      0.000868     -0.008490
O	      2.06941      6.38974      2.08465        -0.008063     -0.001638     -0.000539
O	      2.29477      4.06387      3.97178         0.004589     -0.002541     -0.002696
O	      6.20806      4.35522      4.30793         0.004080     -0.003692      0.002564
O	      6.44317      0.15672      0.11292         0.008070      0.004559      0.000827
O	      2.06120      8.39392      8.61192         0.001634     -0.007867      0.011482
O	      6.37311      6.40922      2.17462        -0.004094      0.010519      0.004679
O	      1.92445      2.20037      6.20960        -0.005949      0.004397     -0.000181
O	      2.01328      2.17632     10.63551        -0.007576      0.017167      0.002009
O	      6.25370      6.16603     14.70315         0.005982     -0.003610      0.000022
O	      4.14234      8.25631     14.91603         0.003353      0.006908      0.007303
O	      4.25172      8.26030     10.41476         0.002257     -0.010414      0.017551
O	      8.29520      6.33724     12.56370        -0.003317     -0.005503      0.006984
O	      0.18463      1.79818     12.87663        -0.008613      0.001773      0.013024
O	      6.61091      3.92462     16.62786        -0.001613     -0.005296     -0.006585
O	      2.04083      4.34530      8.44855        -0.005443     -0.001877      0.004286
O	      0.14020      4.39239     10.30289        -0.004451      0.011621     -0.000624
O	      0.00928      4.04894     14.78153         0.010115      0.008956      0.005973
O	      4.18999      2.09938      8.26970        -0.010149     -0.012162     -0.003530
O	      4.13734      6.33961     16.75858        -0.007195      0.009637      0.003998
O	      2.04542      8.40172     12.71976        -0.001142     -0.003687     -0.005320
O	      6.38282      8.27891     12.61636         0.006153      0.006375     -0.007616
O	      2.12175      6.30762     14.59994         0.014706     -0.018024     -0.006680
O	      6.15315      2.01040     10.47846        -0.009898     -0.000725      0.003111
O	      4.13677      4.26929     10.56122        -0.001058      0.002106      0.007629
O	      4.31235      4.17200     14.87590        -0.001377      0.004522      0.009608
O	      0.03237      2.04687     16.77974        -0.003052     -0.005334      0.005952
O	      8.40247      6.34923      8.47157        -0.003971      0.006434     -0.002155
O	      0.04423      8.32004     14.77698         0.010282     -0.000828      0.005622
O	      8.25332      8.31116     10.65614         0.007692      0.003532      0.000865
O	      4.29222      6.41182     12.81337         0.006483      0.010123      0.007397
O	      4.18616      1.96176     12.71516        -0.005439     -0.001352      0.004352
O	      6.42449      1.97762     14.80477        -0.003242     -0.008267     -0.002686
O	      2.00734      6.25131     10.48705         0.008431     -0.004353     -0.003516
O	      2.05009      4.03012     12.52494        -0.012847      0.005451     -0.002448
O	      6.24073      4.23651     12.78872        -0.008386     -0.002326      0.001285
O	      6.16153      0.10969      8.58074         0.001221     -0.005471      0.001571
O	      2.24958      0.05937     16.78974        -0.004498      0.018596      0.002762
O	      6.34079      6.36598     10.60183         0.001429     -0.003629      0.016697
O	      2.11314      1.89512     14.69352         0.001871      0.011834      0.002380
O	      2.29333      2.01135     19.11459         0.000408     -0.009673      0.001827
O	      6.38496      6.36230     23.12011         0.005357      0.001632      0.004212
O	      4.35853      0.03729     23.16907        -0.003924      0.005632      0.002182
O	      4.40732      0.06721     18.92884        -0.011109      0.000659      0.000622
O	      0.11384      6.39541     21.13763         0.001261      0.001561     -0.007210
O	      0.11482      2.09138     21.16730        -0.000578      0.009266     -0.003612
O	      6.44417      4.18986     25.23033        -0.003854     -0.000978      0.007828
O	      2.12127      4.07113     16.86632         0.007406      0.004572     -0.003329
O	      0.05044      4.28807     18.85486         0.000764     -0.008027     -0.007072
O	      8.40203      4.17493     23.32099         0.002245      0.003223      0.002910
O	      4.37644      1.95974     16.95758         0.006464     -0.006557      0.002905
O	      4.18173      6.32221     25.22716         0.005713     -0.001806     -0.001590
O	      2.10944      0.14498     21.09351        -0.002621     -0.008312     -0.007215
O	      6.53310      0.01712     21.03117        -0.012042      0.001768     -0.002416
O	      2.27777      6.34487     23.34452        -0.005891     -0.001893     -0.013202
O	      6.34749      2.01301     18.91110        -0.003830      0.005500     -0.007159
O	      4.22906      4.14887     19.10542        -0.005473     -0.006388     -0.006179
O	      4.50731      4.50599     22.93713         0.001796     -0.005006      0.004563
O	      8.37632      2.26025     25.28038         0.015788      0.008038     -0.004310
O	      0.01505      6.17955     16.97431        -0.010070     -0.009959      0.004650
O	      8.35602      0.16267     23.11871        -0.015692      0.003164      0.003075
O	      0.05900      8.40778     19.07436         0.008875     -0.002128     -0.004779
O	      4.38710      6.40244     21.12174         0.002039      0.007341     -0.002250
O	      4.28111      2.21761     21.00247        -0.002209     -0.006140      0.009399
O	      6.45935      2.26091     23.26480        -0.001861      0.003361      0.004275
O	      2.16716      6.36531     19.02922        -0.000068      0.004744      0.009769
O	      2.24060      4.11869     21.20219         0.012049      0.005761      0.010681
O	      6.42958      4.33061     21.12070        -0.003515     -0.001019     -0.009689
O	      6.29366      0.00555     16.95929         0.006698     -0.007058      0.003319
O	      2.08904      0.01676      0.01656        -0.015349      0.008321      0.007895
O	      6.66955      6.53032     19.21007         0.003897      0.004828      0.015750
O	      2.07109      2.06887     23.12025        -0.010302     -0.014753      0.009744
