ITEM: TIMESTEP
0
ITEM: NUMBER OF ATOMS
40
ITEM: BOX BOUNDS pp pp pp
0.0000000000000000e+00 8.8021311939999993e+00
0.0000000000000000e+00 5.1257573089999999e+00
0.0000000000000000e+00 9.4185390170000005e+00
ITEM: ATOMS id type v_vir_xx v_vir_yy v_vir_zz v_vir_xy v_vir_xz v_vir_yz
1 2      -1.445474402181      -1.881340217531      -2.031466286275       0.670230889160       1.044957673887      -1.127538315821
2 2      -1.445462708394      -1.881441610178      -2.031439238310      -0.670205733098      -1.044996975249      -1.127518449649
3 2      -3.167109784955      -3.717612715622      -2.977003999522      -0.533430969785      -0.365945006293       0.694318312179
4 2      -3.167131798164      -3.717699897042      -2.977090521634       0.533457172768       0.365957378903       0.694358924015
5 2      -2.071834961682      -2.102948852122      -1.804527148519      -0.336899719294       0.740132377519      -0.110645057751
6 2      -2.164484085080      -2.661601520144      -3.704565332636       0.401893784495      -0.613697895514      -1.241882249069
7 2      -2.164449472870      -2.661530699142      -3.704587534800      -0.401898285753       0.613661444122      -1.241889232383
8 2      -2.071835263012      -2.102900053160      -1.804491586679       0.336910898925      -0.740166417163      -0.110682990569
9 2      -3.167308834669      -3.716423256409      -2.970424570513       0.531318097681      -0.366073507175      -0.695826468955
10 2      -3.167255334027      -3.716544866696      -2.970446473000      -0.531385762380       0.366071678675      -0.695909933402
11 2      -1.457508559916      -1.889137500288      -2.038902068402      -0.671812912599       1.049740637540       1.120008036797
12 2      -1.457493850562      -1.889111314778      -2.038884337982       0.671843924669      -1.049754216481       1.120003270945
13 2      -2.065273250479      -2.105275126097      -1.807232856739      -0.339062538585      -0.738679001192       0.107383606967
14 2      -2.160996665187      -2.668057026863      -3.711425791428      -0.402419456196      -0.613795070176       1.240479944129
15 2      -2.160984361019      -2.668084424838      -3.711398089644       0.402419868461       0.613832980885       1.240488951658
16 2      -2.065264295488      -2.105205410772      -1.807178108317       0.339016515438       0.738635038615       0.107383222293
17 1       0.769397077193       1.333949324803       0.917552565214       0.340097785288       0.835558555492      -0.792774463850
18 1       0.337418183931       0.921142867168       1.211999926644      -0.375611629814      -0.930540052133      -0.462629759075
19 1       1.505368936952       1.143008468377       1.010811274018      -0.375768577286      -0.487173492859      -0.749598048139
20 1       2.432765077049       2.712991491131       2.919394679161      -0.293794917820      -0.670393902555      -0.931106281233
21 1       0.769370833664       1.333906528703       0.917522932631      -0.340111382045      -0.835540320555      -0.792752156834
22 1       2.193092514753       1.986577358877       2.170987692955      -0.076318854704      -0.128766230972      -0.362463306789
23 1       1.505359429180       1.143127804261       1.010796558964       0.375745162404       0.487167573320      -0.749626387741
24 1       2.432789164951       2.713018062831       2.919420724666       0.293790297331       0.670390349956      -0.931107992258
25 1       2.196825148081       1.987570480933       2.172014698490      -0.075873267117       0.127833553923       0.362789241106
26 1       0.767659303889       1.325662321560       0.915610843088      -0.338125610725       0.836640625629       0.791694247452
27 1       2.429519456656       2.712314548251       2.917562354449      -0.292388669385       0.673454143319       0.931111933324
28 1       1.505288679033       1.140942508179       1.009471672933      -0.375292246139       0.486761896956       0.746978000241
29 1       0.336573441795       0.926588398258       1.213336182815      -0.380703544657       0.927511891506       0.460722567094
30 1       0.767636751962       1.325654499739       0.915589440135       0.338085781899      -0.836660211307       0.791732150206
31 1       1.592078787819       2.563926498300       2.296883381606       0.009143828221       0.193763465987       0.021584394097
32 1       1.592820564350       2.566950399771       2.297368797239       0.006400599863      -0.192101665124      -0.021489716102
33 1       0.336607915456       0.926626685152       1.213366449847       0.380741229654      -0.927532295249       0.460706310351
34 1       2.193083138349       1.986587211776       2.171100583177       0.076338349529       0.128757275772      -0.362462974751
35 1       1.592111920833       2.563998917562       2.296895622084      -0.009130206289      -0.193750706638       0.021564680231
36 1       1.592878792905       2.566999618972       2.297426200852      -0.006413379712       0.192103109907      -0.021502677730
37 1       2.196838353935       1.987551115043       2.172027350855       0.075838948949      -0.127849670272       0.362777410550
38 1       0.337405113848       0.921143420876       1.212005542587       0.375598837736       0.930522260532      -0.462603147808
39 1       2.429572088655       2.712379030962       2.917574284346       0.292375315716      -0.673431684295       0.931122325540
40 1       1.505253595349       1.140783770977       1.009537181083       0.375273567127      -0.486754609797       0.746946586788
