ITEM: TIMESTEP
0
ITEM: NUMBER OF ATOMS
80
ITEM: BOX BOUNDS pp pp pp
0.0000000000000000e+00 9.4674102219999998e+00
0.0000000000000000e+00 9.4674102219999998e+00
0.0000000000000000e+00 9.4674102219999998e+00
ITEM: ATOMS id type x y z fx fy fz
1 2       7.100560000000       2.366850000000       2.366850000000      -0.000048946776       0.000074857284       0.000073760766
2 2       7.100560000000       4.392830000000       4.733710000000      -0.000090021729       0.119288663561      -0.000107082571
3 2       0.000000000000       7.100560000000       0.340880000000      -0.000017121753      -0.000069629987      -0.119347983402
4 2       0.000000000000       2.366850000000       4.392830000000      -0.000021614013       0.000094555391       0.119313809302
5 2       0.340880000000       0.000000000000       7.100560000000      -0.119347983402      -0.000017121753      -0.000069629987
6 2       0.340880000000       4.733710000000       2.366850000000      -0.119313151137      -0.000111574875       0.000114947446
7 2       2.366850000000       4.392830000000       0.000000000000       0.000094555391       0.119313809302      -0.000021614013
8 2       2.366850000000       7.100560000000       2.366850000000       0.000073760766      -0.000048946776       0.000074857284
9 2       2.366850000000       2.366850000000       2.366850000000       0.000053716495       0.000053716495       0.000053716495
10 2       2.366850000000       2.366850000000       7.100560000000       0.000074857284       0.000073760766      -0.000048946776
11 2       2.366850000000       0.340880000000       4.733710000000       0.000114947446      -0.119313151137      -0.000111574875
12 2       4.392830000000       0.000000000000       2.366850000000       0.119313809302      -0.000021614013       0.000094555391
13 2       4.392830000000       4.733710000000       7.100560000000       0.119288663561      -0.000107082571      -0.000090021729
14 2       4.733710000000       2.366850000000       0.340880000000      -0.000111574875       0.000114947446      -0.119313151137
15 2       4.733710000000       7.100560000000       4.392830000000      -0.000107082571      -0.000090021729       0.119288663561
16 2       7.100560000000       0.340880000000       0.000000000000      -0.000069629987      -0.119347983402      -0.000017121753
17 2       2.366850000000       7.100560000000       7.100560000000       0.000066942386      -0.000044401144      -0.000031175451
18 2       2.366850000000       9.126530000000       0.000000000000       0.000094859805       0.119360029744       0.000037880568
19 2       4.733710000000       2.366850000000       5.074580000000      -0.000052079684       0.000074467932      -0.119340258950
20 2       4.733710000000       7.100560000000       9.126530000000      -0.000056572322      -0.000049542684       0.119334885186
21 2       5.074580000000       4.733710000000       2.366850000000      -0.119340258950      -0.000052079684       0.000074467932
22 2       5.074580000000       0.000000000000       7.100560000000      -0.119375090305       0.000033388695      -0.000069933999
23 2       7.100560000000       9.126530000000       4.733710000000      -0.000049542684       0.119334885186      -0.000056572322
24 2       7.100560000000       2.366850000000       7.100560000000      -0.000031175451       0.000066942386      -0.000044401144
25 2       7.100560000000       7.100560000000       7.100560000000      -0.000047850403      -0.000047850403      -0.000047850403
26 2       7.100560000000       7.100560000000       2.366850000000      -0.000044401144      -0.000031175451       0.000066942386
27 2       7.100560000000       5.074580000000       0.000000000000      -0.000069933999      -0.119375090305       0.000033388695
28 2       9.126530000000       4.733710000000       7.100560000000       0.119334885186      -0.000056572322      -0.000049542684
29 2       9.126530000000       0.000000000000       2.366850000000       0.119360029744       0.000037880568       0.000094859805
30 2       0.000000000000       7.100560000000       5.074580000000       0.000033388695      -0.000069933999      -0.119375090305
31 2       0.000000000000       2.366850000000       9.126530000000       0.000037880568       0.000094859805       0.119360029744
32 2       2.366850000000       5.074580000000       4.733710000000       0.000074467932      -0.119340258950      -0.000052079684
33 1       8.387180000000       5.792520000000       1.498180000000      -0.004939080138      -0.071886210720       0.032763751196
34 1       8.387180000000       3.674890000000       3.235530000000      -0.004865139040       0.071945278036      -0.032863647994
35 1       8.408590000000       1.498180000000       1.080230000000       0.071991675753       0.032807252203       0.004879799536
36 1       8.408590000000       3.235530000000       5.813940000000       0.072013910714      -0.032892450232       0.004851772901
37 1       1.058820000000       3.235530000000       1.080230000000      -0.072019762085      -0.032885119095       0.004842312057
38 1       1.058820000000       1.498180000000       5.813940000000      -0.072009165861       0.032811988561       0.004891657519
39 1       1.080230000000       8.408590000000       1.498180000000       0.004879799536       0.071991675753       0.032807252203
40 1       1.080230000000       1.058820000000       3.235530000000       0.004842312057      -0.072019762085      -0.032885119095
41 1       1.498180000000       5.813940000000       1.058820000000       0.032811988561       0.004891657519      -0.072009165861
42 1       1.498180000000       3.653470000000       3.674890000000       0.032791230674      -0.004881791291       0.071935715327
43 1       1.498180000000       1.080230000000       8.408590000000       0.032807252203       0.004879799536       0.071991675753
44 1       1.498180000000       8.387180000000       5.792520000000       0.032763751196      -0.004939080138      -0.071886210720
45 1       3.235530000000       3.653470000000       5.792520000000      -0.032849664439      -0.004878362485      -0.071909475734
46 1       3.235530000000       1.080230000000       1.058820000000      -0.032885119095       0.004842312057      -0.072019762085
47 1       3.235530000000       8.387180000000       3.674890000000      -0.032863647994      -0.004865139040       0.071945278036
48 1       3.235530000000       5.813940000000       8.408590000000      -0.032892450232       0.004851772901       0.072013910714
49 1       3.653470000000       3.674890000000       1.498180000000      -0.004881791291       0.071935715327       0.032791230674
50 1       3.653470000000       5.792520000000       3.235530000000      -0.004878362485      -0.071909475734      -0.032849664439
51 1       3.674890000000       1.498180000000       3.653470000000       0.071935715327       0.032791230674      -0.004881791291
52 1       3.674890000000       3.235530000000       8.387180000000       0.071945278036      -0.032863647994      -0.004865139040
53 1       5.792520000000       1.498180000000       8.387180000000      -0.071886210720       0.032763751196      -0.004939080138
54 1       5.792520000000       3.235530000000       3.653470000000      -0.071909475734      -0.032849664439      -0.004878362485
55 1       5.813940000000       8.408590000000       3.235530000000       0.004851772901       0.072013910714      -0.032892450232
56 1       5.813940000000       1.058820000000       1.498180000000       0.004891657519      -0.072009165861       0.032811988561
57 1       3.653470000000       1.058820000000       6.231880000000      -0.004825702003      -0.072021479676       0.032909977508
58 1       3.653470000000       8.408590000000       7.969230000000      -0.004871215208       0.072000542171      -0.032824336572
59 1       3.674890000000       6.231880000000       5.813940000000       0.071944482959       0.032887418207       0.004854088449
60 1       3.674890000000       7.969230000000       1.080230000000       0.071929398311      -0.032794445462       0.004890139560
61 1       5.792520000000       7.969230000000       5.813940000000      -0.071892564235      -0.032779747487       0.004936055387
62 1       5.792520000000       6.231880000000       1.080230000000      -0.071896010105       0.032860653088       0.004878685324
63 1       5.813940000000       3.674890000000       6.231880000000       0.004854088449       0.071944482959       0.032887418207
64 1       5.813940000000       5.792520000000       7.969230000000       0.004936055387      -0.071892564235      -0.032779747487
65 1       6.231880000000       1.080230000000       5.792520000000       0.032860653088       0.004878685324      -0.071896010105
66 1       6.231880000000       8.387180000000       8.408590000000       0.032904526080      -0.004846535411       0.072002956703
67 1       6.231880000000       5.813940000000       3.674890000000       0.032887418207       0.004854088449       0.071944482959
68 1       6.231880000000       3.653470000000       1.058820000000       0.032909977508      -0.004825702003      -0.072021479676
69 1       7.969230000000       8.387180000000       1.058820000000      -0.032816290330      -0.004894445297      -0.072005360695
70 1       7.969230000000       5.813940000000       5.792520000000      -0.032779747487       0.004936055387      -0.071892564235
71 1       7.969230000000       3.653470000000       8.408590000000      -0.032824336572      -0.004871215208       0.072000542171
72 1       7.969230000000       1.080230000000       3.674890000000      -0.032794445463       0.004890139560       0.071929398311
73 1       8.387180000000       8.408590000000       6.231880000000      -0.004846535411       0.072002956703       0.032904526080
74 1       8.387180000000       1.058820000000       7.969230000000      -0.004894445297      -0.072005360695      -0.032816290330
75 1       8.408590000000       6.231880000000       8.387180000000       0.072002956703       0.032904526080      -0.004846535411
76 1       8.408590000000       7.969230000000       3.653470000000       0.072000542171      -0.032824336572      -0.004871215208
77 1       1.058820000000       6.231880000000       3.653470000000      -0.072021479676       0.032909977508      -0.004825702003
78 1       1.058820000000       7.969230000000       8.387180000000      -0.072005360695      -0.032816290330      -0.004894445297
79 1       1.080230000000       3.674890000000       7.969230000000       0.004890139560       0.071929398311      -0.032794445462
80 1       1.080230000000       5.792520000000       6.231880000000       0.004878685324      -0.071896010105       0.032860653088
