ITEM: TIMESTEP
0
ITEM: NUMBER OF ATOMS
160
ITEM: BOX BOUNDS pp pp pp
0.0000000000000000e+00 8.3538450439999998e+00
0.0000000000000000e+00 8.3538450439999998e+00
0.0000000000000000e+00 2.5061535131999999e+01
ITEM: ATOMS id type x y z fx fy fz
1 2       1.212390000000       5.187170000000      22.036320000000      -0.056462002746       0.068626979377      -0.054983537436
2 2       5.186240000000       0.843390000000      13.641030000000      -0.192234231704      -0.032369403675      -0.022475011292
3 2       7.137230000000       7.385190000000       7.372270000000      -0.123238394529       0.127672968899      -0.053944443191
4 2       7.269680000000       7.114600000000      15.734540000000       0.000096095927      -0.070417357698       0.066714240940
5 2       5.208860000000       5.239730000000       0.980980000000       0.090299064475       0.256481277992      -0.068849964826
6 2       3.022880000000       3.195710000000       7.193790000000      -0.011278610673      -0.174686555251       0.001176883008
7 2       0.948530000000       1.046060000000       1.091240000000      -0.122866896240      -0.000599450047      -0.002332177052
8 2       5.157640000000       1.031350000000       5.230830000000       0.012076920596       0.095798629102       0.008147846166
9 2       3.174800000000       2.956650000000      15.611810000000      -0.091346052051       0.038613061397      -0.018783503563
10 2       5.371580000000       1.112950000000      21.862940000000      -0.090509432292       0.039406022759       0.044736086699
11 2       3.127400000000       7.232190000000      11.487470000000      -0.021653893903       0.001162531189      -0.003827352419
12 2       7.401770000000       3.189040000000      19.764920000000       0.156292289102      -0.170827602032      -0.061038202061
13 2       1.014520000000       5.084710000000      13.455680000000       0.072894784409       0.067578492539      -0.026030579502
14 2       7.309980000000       3.213690000000       3.198280000000      -0.082017880885      -0.274312319903       0.055566986441
15 2       5.087400000000       5.324810000000       9.347440000000      -0.124364514022       0.100509065319       0.047059946990
16 2       7.339670000000       7.421220000000      24.048570000000      -0.026191676100      -0.122157053322       0.021851508928
17 2       3.188290000000       7.433280000000      19.885760000000      -0.154163116922      -0.039546886292       0.051860788695
18 2       0.911110000000       1.075020000000       9.496090000000       0.140881682891       0.030301828750       0.013155485283
19 2       3.220380000000       7.407860000000       3.084150000000       0.085265439798       0.017455656267      -0.026307889896
20 2       1.173720000000       1.033870000000      17.781350000000      -0.077218492645       0.029088478418       0.033748621556
21 2       3.919970000000       0.189780000000       8.366110000000       0.216163987100      -0.185317976897       0.034914331320
22 2       6.124790000000       6.098870000000      12.507840000000       0.021946273148      -0.077895584955      -0.045016242449
23 2       2.156920000000       2.131920000000      20.900330000000       0.033638330273      -0.104329877928      -0.003390866357
24 2       6.390260000000       6.279290000000      20.850760000000      -0.025475888948      -0.291558062378       0.056107862616
25 2       1.958610000000       6.381300000000       8.264320000000      -0.107012303482       0.052296031219      -0.023168918126
26 2       8.306270000000       2.055810000000       6.228290000000       0.224572539539       0.017141836039      -0.232412339116
27 2       1.987090000000       2.089400000000       4.211670000000      -0.132115435712       0.054984194036       0.172721212714
28 2       0.047870000000       2.008120000000      14.580530000000       0.074551373160       0.357696676406       0.075574093899
29 2       0.167170000000       6.189990000000      18.751990000000       0.024065288469      -0.110729433031      -0.138404234954
30 2       6.258220000000       0.056570000000       2.098770000000      -0.012981837649      -0.017159103809      -0.041523429520
31 2       6.084360000000       0.075490000000      10.505240000000      -0.010582531657       0.001231810166       0.084665175398
32 2       4.168990000000       2.191480000000      18.749020000000       0.042407908549      -0.017675141098      -0.209589849060
33 2       6.394970000000       8.312100000000      18.801310000000       0.134969435354       0.095478120580      -0.107099463650
34 2       6.339640000000       2.048610000000      16.690980000000      -0.054230722058      -0.011962301613       0.268996410053
35 2       0.158320000000       2.064370000000      23.026500000000       0.002089249619       0.095411093064       0.257603031709
36 2       2.027740000000       8.139060000000      14.713800000000      -0.158289560023      -0.004108689203      -0.051736774296
37 2       4.004040000000       6.011450000000      14.627010000000       0.186535947598       0.139143317615       0.009866726087
38 2       6.237510000000       4.197030000000       6.287910000000      -0.063277096869      -0.014226814811      -0.245857928843
39 2       4.198410000000       6.372960000000      23.011910000000      -0.084469869949      -0.020904306343       0.212089298862
40 2       0.096940000000       4.177760000000      16.706390000000       0.086981732024       0.040051630661       0.217244996630
41 2       2.082790000000       4.230650000000       2.086900000000      -0.006240446460      -0.023390267749       0.007738742194
42 2       4.130380000000       4.292970000000      20.832730000000       0.046397123345      -0.008352918498       0.069929128659
43 2       4.134650000000       8.160420000000      16.768360000000       0.054098070992      -0.008720312039       0.158457691591
44 2       6.286510000000       4.234030000000      22.929570000000       0.070916983622      -0.181399738892       0.100690277238
45 2       8.289640000000       6.191510000000      10.423090000000      -0.027262334087       0.069858954301       0.279342119367
46 2       8.337560000000       8.286930000000      12.553810000000       0.006212476044      -0.134149822239      -0.349719618269
47 2       0.032830000000       4.265340000000       0.038320000000      -0.102054088779       0.047160188952      -0.169009561221
48 2       6.204710000000       4.052960000000      14.591450000000       0.111298008986       0.165299438689      -0.030999738761
49 2       4.125410000000       4.182690000000       4.144310000000       0.093916346964      -0.061948956672       0.203615623075
50 2       2.121740000000       2.031190000000      12.456760000000      -0.028866447763       0.201814943947      -0.139034802046
51 2       2.090290000000       4.100660000000      10.455160000000      -0.058790085386      -0.170529702250       0.150936021289
52 2       0.041230000000       6.413800000000       2.192250000000       0.167967172162       0.055974839569      -0.059731527678
53 2       0.203350000000       8.312930000000      20.986480000000       0.018828873485      -0.226393966804      -0.113504653403
54 2       4.114290000000       2.037070000000       1.979620000000      -0.226135298032      -0.035007756828       0.012501434047
55 2       6.188230000000       2.053050000000      25.016090000000       0.038581537780       0.015956675209      -0.254157900556
56 2       8.329190000000       4.134050000000       8.350010000000       0.030408388146      -0.083018347948      -0.014284330528
57 2       6.071490000000       2.162310000000       8.456720000000      -0.053716500364       0.125210897812      -0.055667689203
58 2       4.009800000000       6.407680000000       6.204980000000       0.024697128214      -0.024320783905      -0.117478015718
59 2       6.322220000000       6.405240000000       4.228480000000      -0.034380044949      -0.031867997161       0.228267892581
60 2       2.174380000000       6.369080000000      25.027100000000       0.139298312438      -0.014759435425      -0.135881683706
61 2       5.156630000000       3.114790000000      11.530160000000      -0.106963016323      -0.073388975626      -0.011194811890
62 2       3.166840000000       1.076420000000      23.995990000000       0.061318478049      -0.036235714250      -0.025389383011
63 2       3.165340000000       5.154710000000      17.746870000000      -0.068705048237       0.069583542878      -0.000405044304
64 2       0.986170000000       7.375020000000       5.214920000000      -0.007927181067       0.052834315682       0.027288708100
65 1       2.114520000000       2.140840000000       2.115930000000       0.181201759622      -0.030541427760      -0.127722394586
66 1       6.129810000000       6.217590000000       6.229150000000       0.089173624368      -0.056377564839      -0.069638672687
67 1       4.232110000000       8.294090000000       6.406910000000      -0.039592078685       0.148523069400       0.130063027747
68 1       4.296210000000       0.128230000000       2.071820000000       0.022006519565      -0.048835244823       0.039446000797
69 1       8.237440000000       6.332900000000       4.113610000000       0.064336838944      -0.025582984624       0.098878476350
70 1       0.026740000000       2.164370000000       4.258880000000       0.025246035479       0.028641680153       0.056069483675
71 1       6.186150000000       4.160210000000       8.324090000000       0.114664895057      -0.182185682408       0.033034411750
72 1       1.915180000000       4.421850000000       0.219440000000      -0.036074705364       0.172605637144      -0.006168121245
73 1       8.345950000000       4.339150000000       2.069940000000       0.089178609184       0.029250890973      -0.066623387561
74 1       8.110870000000       4.012020000000       6.485210000000      -0.065501619801      -0.153335399814       0.005967970877
75 1       4.271830000000       2.116360000000       0.052470000000      -0.077706215303       0.012592043205      -0.052039419974
76 1       4.005940000000       6.369780000000       8.222950000000       0.009487321786       0.089952008211      -0.118492712383
77 1       2.106570000000       0.081980000000       4.158960000000       0.013878293311       0.015894472471      -0.053378308138
78 1       6.135590000000       8.302840000000       4.080030000000      -0.009644901310       0.102587398097      -0.085715609266
79 1       2.092420000000       6.362960000000       6.334030000000      -0.096971802837      -0.007753659747      -0.082173178151
80 1       6.205830000000       2.120500000000       2.026260000000       0.068663080787       0.058868014124       0.057382751388
81 1       4.169940000000       4.113670000000       2.105790000000      -0.088707160927      -0.034242355229       0.050602373590
82 1       4.210720000000       4.317990000000       6.158130000000      -0.053377038660       0.007173856131      -0.041975450942
83 1       8.153350000000       2.097150000000       8.335380000000       0.016871421749       0.039049778106       0.054524897304
84 1       0.044970000000       6.287530000000       0.091130000000       0.060457868486      -0.046675827980      -0.089284474204
85 1       8.212880000000       0.065940000000       6.285000000000       0.004003253428       0.021522277054       0.008015253392
86 1       8.220150000000       8.326830000000       2.103370000000      -0.019562647353       0.057685776007      -0.025994327697
87 1       4.227820000000       6.217150000000       4.217700000000      -0.130433877580       0.031955350747       0.169911192691
88 1       4.111450000000       2.163520000000       4.095970000000      -0.039603373314       0.058796692212       0.055912876315
89 1       6.236180000000       2.160480000000       6.336290000000      -0.031702369953      -0.011341617458      -0.035392316770
90 1       2.048660000000       6.315720000000       2.057750000000      -0.121045463399       0.035393285558       0.139130511303
91 1       2.244240000000       4.036950000000       3.952960000000       0.054357124684      -0.172640122667       0.019039453048
92 1       6.142210000000       4.309760000000       4.259520000000       0.007108015030       0.020063184421      -0.024006432839
93 1       6.360970000000       0.152420000000       0.113210000000       0.032309847097      -0.083438322395       0.093056072486
94 1       2.025550000000       8.305140000000       8.495890000000       0.032722758833       0.075164276289      -0.040483461763
95 1       6.305850000000       6.338200000000       2.151700000000      -0.069097165880      -0.059880936406      -0.026124282419
96 1       1.914120000000       2.149430000000       6.153990000000       0.018377426128       0.025459836362       0.039799942011
97 1       2.020160000000       2.143460000000      10.511420000000      -0.039273962188      -0.024463423228      -0.002001448682
98 1       6.184000000000       6.105710000000      14.547450000000      -0.116364370924       0.020553243657      -0.008532128285
99 1       4.096250000000       8.163080000000      14.757430000000       0.039963977351      -0.057217958574       0.173617372861
100 1       4.196960000000       8.194120000000      10.315950000000      -0.158488743844       0.042447773265      -0.134251323006
101 1       8.209210000000       6.270750000000      12.440540000000       0.039941899848       0.006683897451      -0.081535514478
102 1       0.164380000000       1.804400000000      12.713930000000       0.181987154660      -0.070525107283       0.040007573085
103 1       6.519250000000       3.909790000000      16.476620000000       0.078011995357      -0.104923927983       0.020030650848
104 1       2.019840000000       4.302620000000       8.366920000000      -0.025545803945      -0.002113736829      -0.071166103465
105 1       0.123510000000       4.321380000000      10.216570000000       0.197295409724       0.055226915459       0.018758379280
106 1       8.352730000000       4.008170000000      14.635780000000      -0.111467699405      -0.261167640473      -0.129162087177
107 1       4.143720000000       2.089850000000       8.211850000000      -0.054879440305      -0.044082524902       0.023860697070
108 1       4.128530000000       6.261160000000      16.589430000000      -0.048335812533      -0.106303217845      -0.055369672030
109 1       2.018160000000       8.309540000000      12.593500000000      -0.014571116245      -0.022878648847      -0.016670878895
110 1       6.312870000000       8.189780000000      12.488250000000       0.054068750743       0.149124783148      -0.099215841870
111 1       2.092280000000       6.228920000000      14.474310000000       0.043902219140      -0.043694480699       0.025821428477
112 1       6.122730000000       1.997850000000      10.378590000000       0.009194319810       0.087243636238       0.092242853505
113 1       4.093650000000       4.228650000000      10.449770000000      -0.036629177413       0.030178334441      -0.053338709635
114 1       4.265270000000       4.114460000000      14.689140000000      -0.072984182262      -0.039536984546      -0.004745006015
115 1       0.025930000000       2.028490000000      16.607210000000       0.011238003201       0.052854674086      -0.021377441719
116 1       8.306980000000       6.272280000000       8.382890000000       0.165867633293      -0.132901082832      -0.021189239219
117 1       0.033610000000       8.242320000000      14.620390000000       0.282870154068       0.028956798465       0.017264691465
118 1       8.168970000000       8.222280000000      10.537440000000      -0.002190167417       0.064117085847       0.032622435529
119 1       4.238850000000       6.323460000000      12.674180000000      -0.126860021177      -0.025713447106       0.075992345789
120 1       4.135640000000       1.941260000000      12.578260000000       0.005577525155      -0.000005152307       0.010652474713
121 1       6.354000000000       1.960150000000      14.650390000000       0.040183080538       0.053651677481       0.002666228758
122 1       1.980710000000       6.185150000000      10.371970000000       0.046610069848       0.009767963475       0.049217660546
123 1       2.052380000000       3.995290000000      12.402210000000      -0.033413565079      -0.021287058111       0.076737110954
124 1       6.210580000000       4.183970000000      12.646470000000       0.006999151417      -0.089805075164      -0.107666937118
125 1       6.088450000000       0.108490000000       8.489320000000      -0.073235368179      -0.042951386255       0.125231604845
126 1       2.219510000000       0.038660000000      16.624910000000      -0.100580288593       0.012922229047       0.037046167966
127 1       6.272500000000       6.306470000000      10.490500000000       0.080693915307      -0.069300885771       0.014688518434
128 1       2.081820000000       1.867700000000      14.537780000000      -0.037182938335      -0.003063687989       0.025430424499
129 1       2.265400000000       2.007030000000      18.913980000000      -0.081482020941      -0.029815477587       0.068983194199
130 1       6.317360000000       6.290390000000      22.881730000000      -0.031863849924       0.079236796298       0.010471237505
131 1       4.312810000000       0.031920000000      22.932350000000       0.010441341020       0.003851233845       0.033405887704
132 1       4.361310000000       0.072070000000      18.739050000000      -0.021756672255      -0.101374994820      -0.180142549979
133 1       0.106740000000       6.321290000000      20.904840000000       0.096390346593       0.248216329020       0.007421013518
134 1       0.106520000000       2.069450000000      20.946330000000      -0.041757461519       0.037166076511      -0.013441151349
135 1       6.375800000000       4.148650000000      24.972820000000       0.021438063622      -0.019777433992       0.048077055274
136 1       2.097880000000       4.026740000000      16.686740000000      -0.018102562589      -0.038287848125       0.055468890862
137 1       0.074330000000       4.232350000000      18.666750000000      -0.034433575710       0.028262203705       0.018178258400
138 1       8.312750000000       4.137810000000      23.070630000000       0.030867156274       0.001085061777       0.065729470847
139 1       4.326980000000       1.930870000000      16.773330000000       0.011611113021       0.079958280496       0.151805761143
140 1       4.142050000000       6.286030000000      24.970210000000      -0.050515429106      -0.043506948299       0.011862074669
141 1       2.097160000000       0.145280000000      20.896550000000       0.037488373141       0.105022961709      -0.008423820800
142 1       6.466520000000       0.006580000000      20.814000000000       0.036773481291      -0.057471457088      -0.196417872756
143 1       2.240950000000       6.306590000000      23.085530000000      -0.062382953479      -0.006004681466      -0.121179080894
144 1       6.280760000000       1.989630000000      18.718810000000      -0.064758058955       0.049806270781       0.007261219356
145 1       4.220790000000       4.109920000000      18.897210000000       0.007129187337       0.052156061253      -0.104575735781
146 1       4.430840000000       4.441190000000      22.725130000000       0.071557352464       0.123445812388       0.010501187600
147 1       8.286040000000       2.235250000000      25.020670000000       0.138040663910      -0.023252798238      -0.124047753157
148 1       0.041490000000       6.124640000000      16.791040000000       0.000153235047       0.081769807211      -0.011406297175
149 1       8.285680000000       0.155000000000      22.887020000000      -0.010384401386      -0.077907250562       0.060564220477
150 1       0.059940000000       8.315690000000      18.884410000000      -0.059507491058      -0.054890910863      -0.076355633997
151 1       4.346680000000       6.333190000000      20.906950000000       0.000556499982       0.024588751781      -0.099505149316
152 1       4.238400000000       2.193520000000      20.788070000000       0.095132964857      -0.020576293046       0.002915260642
153 1       6.397720000000       2.234330000000      23.020970000000      -0.088608783615       0.116843164811       0.074226739449
154 1       2.147740000000       6.299640000000      18.831590000000      -0.013027926298       0.035473254005      -0.023721066487
155 1       2.212790000000       4.088550000000      20.946540000000       0.051604220816      -0.021718126258       0.011530202009
156 1       6.344070000000       4.277500000000      20.903090000000      -0.296897967705       0.241977670579       0.050355616440
157 1       6.230090000000       0.007810000000      16.779200000000      -0.019674453157      -0.053837549848       0.018498092807
158 1       2.064410000000       0.015600000000       0.018290000000      -0.034445522171      -0.048440524438       0.030784940166
159 1       6.582240000000       6.436500000000      18.983360000000       0.109905442305       0.057772367882       0.062161418118
160 1       2.056500000000       2.082790000000      22.884410000000       0.026436503644      -0.015466657520      -0.061611764847
