ITEM: TIMESTEP
0
ITEM: NUMBER OF ATOMS
160
ITEM: BOX BOUNDS pp pp pp
0.0000000000000000e+00 8.3538450439999998e+00
0.0000000000000000e+00 8.3538450439999998e+00
0.0000000000000000e+00 2.5061535131999999e+01
ITEM: ATOMS id type c_pe_atom
1 2      -4.547133263875
2 2      -4.364364373835
3 2      -4.361417281609
4 2      -4.506055496634
5 2      -4.493048626865
6 2      -4.563927908383
7 2      -4.415570638244
8 2      -4.374769762168
9 2      -4.396003308408
10 2      -4.360414936424
11 2      -4.357169392815
12 2      -4.496045749127
13 2      -4.545969886209
14 2      -4.485107658348
15 2      -4.361780256430
16 2      -4.384371075183
17 2      -4.431847666952
18 2      -4.554233439363
19 2      -4.415860712053
20 2      -4.384948400569
21 2      -4.932935332734
22 2      -4.847291254384
23 2      -5.039909308929
24 2      -4.706725326782
25 2      -4.850079126511
26 2      -5.153961492336
27 2      -5.126032320933
28 2      -4.675281254983
29 2      -5.115876902953
30 2      -4.970795614582
31 2      -4.848458864549
32 2      -4.838800564844
33 2      -4.797662458706
34 2      -4.753294185463
35 2      -4.808019515469
36 2      -4.751516694481
37 2      -4.993412743476
38 2      -4.771458616144
39 2      -5.113981802611
40 2      -5.130843542531
41 2      -4.840066875398
42 2      -4.943767145984
43 2      -4.861928209212
44 2      -4.795535874321
45 2      -4.761608922174
46 2      -4.743193835210
47 2      -4.814610126574
48 2      -4.974219304602
49 2      -4.811996791106
50 2      -5.135440963839
51 2      -5.152768223756
52 2      -4.807991604315
53 2      -4.736918935393
54 2      -4.810151015599
55 2      -4.800875828186
56 2      -4.806361190657
57 2      -4.855306496156
58 2      -4.842116168048
59 2      -4.796708778064
60 2      -5.122143371323
61 2      -4.732868726590
62 2      -4.689757321556
63 2      -4.702103415281
64 2      -4.709212166618
65 1     -11.065406662268
66 1     -11.116754694696
67 1     -11.016734791281
68 1     -11.050670251043
69 1     -11.036168425862
70 1     -10.912787449439
71 1     -11.046018606248
72 1     -10.675348290725
73 1     -10.999551824526
74 1     -10.662765788155
75 1     -11.004696150187
76 1     -10.978045862949
77 1     -11.208710427388
78 1     -11.005571095777
79 1     -11.009877887163
80 1     -10.958335600822
81 1     -10.995743771559
82 1     -11.078479827548
83 1     -10.984255114475
84 1     -11.024805639812
85 1     -11.232232660122
86 1     -11.060578387092
87 1     -11.089874146434
88 1     -11.017186582774
89 1     -11.008824674728
90 1     -11.063202208156
91 1     -10.670594057710
92 1     -11.091982564460
93 1     -11.004197285280
94 1     -11.057082570351
95 1     -10.953544005421
96 1     -10.911312554529
97 1     -10.911497168117
98 1     -10.907459212883
99 1     -10.991238742412
100 1     -10.994297342226
101 1     -11.077621458490
102 1     -10.660181399427
103 1     -10.625382023433
104 1     -11.007187432501
105 1     -10.667727309409
106 1     -11.017970289890
107 1     -11.043673620373
108 1     -10.960734116186
109 1     -11.030397229048
110 1     -11.126811791854
111 1     -11.066549915398
112 1     -11.003895779699
113 1     -11.215725415755
114 1     -11.069243143668
115 1     -11.042380886232
116 1     -11.032359716741
117 1     -11.049635000025
118 1     -11.071599905035
119 1     -11.022510687422
120 1     -11.221507322187
121 1     -11.026752548703
122 1     -11.020873976226
123 1     -10.914255627989
124 1     -11.014269329140
125 1     -10.980221356832
126 1     -11.081014928060
127 1     -11.108029978617
128 1     -11.069804774007
129 1     -11.011213002215
130 1     -11.037270493103
131 1     -11.207800109235
132 1     -11.100214309068
133 1     -11.048146858771
134 1     -10.953618277568
135 1     -11.082478612099
136 1     -11.182227279278
137 1     -10.919346484160
138 1     -11.064606019330
139 1     -11.109795495103
140 1     -10.925000122958
141 1     -11.044889107728
142 1     -11.057147194327
143 1     -10.942577557692
144 1     -11.071125656741
145 1     -11.015558744904
146 1     -10.620978802333
147 1     -11.084988158258
148 1     -10.935249963929
149 1     -11.108519226565
150 1     -11.019667189736
151 1     -11.048116804373
152 1     -10.973598258058
153 1     -11.120527135304
154 1     -11.212600512121
155 1     -10.957357881278
156 1     -10.984797352943
157 1     -11.078950772164
158 1     -11.207151665979
159 1     -10.668123434042
160 1     -10.943349988897
