ITEM: TIMESTEP
0
ITEM: NUMBER OF ATOMS
40
ITEM: BOX BOUNDS pp pp pp
0.0000000000000000e+00 8.6965056199999999e+00
0.0000000000000000e+00 5.0642482209999997e+00
0.0000000000000000e+00 9.3055165479999999e+00
ITEM: ATOMS id type v_vir_xx v_vir_yy v_vir_zz v_vir_xy v_vir_xz v_vir_yz
1 2      -2.247587213536      -2.750833306602      -2.697385050817       0.692736302784       1.111066005568      -1.226328735570
2 2      -2.247690634830      -2.750835036649      -2.697423726701      -0.692687439671      -1.111113727973      -1.226180705767
3 2      -4.042916758108      -4.651240607210      -3.660438041829      -0.576848732170      -0.431915672953       0.612672754365
4 2      -4.043040688531      -4.651282558365      -3.660445734977       0.576837312597       0.431937869419       0.612672145948
5 2      -3.006422277976      -3.416195808425      -2.720140470898      -0.263898381461       0.728144676246      -0.082357680787
6 2      -3.124929273111      -3.790656714138      -4.323757518407       0.337541271044      -0.615080583237      -1.329691568743
7 2      -3.124896081819      -3.790565406425      -4.323730729565      -0.337555754339       0.615023628114      -1.329726408782
8 2      -3.006370534467      -3.416199692649      -2.720067825880       0.263851422357      -0.728137842974      -0.082496874893
9 2      -4.043346336436      -4.650501264174      -3.659045113220       0.575953971979      -0.432419127495      -0.613392137341
10 2      -4.043361479341      -4.650352109934      -3.658974161653      -0.575926900120       0.432403563574      -0.613382289425
11 2      -2.250553780582      -2.753279467322      -2.700237095037      -0.693390071740       1.112678542456       1.223524689267
12 2      -2.250519947010      -2.753179722333      -2.700242708423       0.693351716416      -1.112747594501       1.223497227797
13 2      -3.001786685572      -3.417599125444      -2.719837045755      -0.266174845832      -0.728483667269       0.080280870300
14 2      -3.120315795503      -3.793394761454      -4.326093880614      -0.337211359758      -0.615943644399       1.328174275556
15 2      -3.120292997407      -3.793284947951      -4.326079436338       0.337166400865       0.615887753817       1.328235435675
16 2      -3.001793860502      -3.417539537462      -2.719864954533       0.266148446981       0.728513452755       0.080223737529
17 1       0.704559240711       1.065394368482       0.719039994678       0.302615229602       0.705386621196      -0.738095151582
18 1       0.196806871869       0.866110377282       1.062972026461      -0.363566031890      -0.886827852302      -0.424728227478
19 1       1.307954413935       1.128010770790       0.652419860327      -0.298050341880      -0.443367348322      -0.696975290179
20 1       2.440971928153       2.637891069190       2.641194343948      -0.372406706393      -0.726670054358      -0.895524062846
21 1       0.704589171375       1.065367032573       0.718995167293      -0.302667332639      -0.705351600352      -0.738039570300
22 1       2.258147988929       1.932409809324       2.017236177508      -0.053722027244      -0.142909578613      -0.372804742942
23 1       1.307955037767       1.128034406898       0.652493691447       0.298031546271       0.443349180328      -0.696996816247
24 1       2.440948388082       2.637833108043       2.641198825237       0.372401704572       0.726708170061      -0.895517576004
25 1       2.258239210460       1.931041449816       2.016891647016      -0.054175346613       0.143037347681       0.372582488538
26 1       0.705022344040       1.059642975797       0.716865052786      -0.301248682514       0.706441467445       0.738699678751
27 1       2.438086409694       2.634955930852       2.640474161375      -0.371516860653       0.728799282839       0.896199353356
28 1       1.307055511927       1.127062993556       0.651748540322      -0.298680265679       0.443321390699       0.695832176718
29 1       0.196995200186       0.869373269315       1.063616417570      -0.366333515114       0.884960781931       0.424852136208
30 1       0.704998549948       1.059545481996       0.716889365596       0.301234076319      -0.706426045753       0.738681489399
31 1       1.423825372976       2.518847446143       2.082653937814       0.002639198919       0.212054449771       0.120282649262
32 1       1.422949984267       2.520636865813       2.082909161968       0.000255737730      -0.211822917574      -0.118675927522
33 1       0.196996015145       0.869430000584       1.063595607364       0.366400860247      -0.884955979954       0.424847565167
34 1       2.258144596417       1.932451671135       2.017267073938       0.053747829261       0.142907196267      -0.372826108563
35 1       1.423873466184       2.518916332091       2.082678471650      -0.002590783357      -0.212029297669       0.120286595648
36 1       1.423009048604       2.520691733038       2.082921914761      -0.000224179144       0.211820431005      -0.118701881735
37 1       2.258239514684       1.931000118406       2.017020109949       0.054139694461      -0.143052587276       0.372588988491
38 1       0.196776119458       0.866129818053       1.062986768785       0.363576358464       0.886752258307      -0.424719997182
39 1       2.438139395139       2.634979437943       2.640535233409       0.371529740243      -0.728769934329       0.896223253448
40 1       1.307032500219       1.127197526551       0.651726281088       0.298685287406      -0.443297090934       0.695883431057
