ITEM: TIMESTEP
0
ITEM: NUMBER OF ATOMS
40
ITEM: BOX BOUNDS pp pp pp
0.0000000000000000e+00 8.6436928329999994e+00
0.0000000000000000e+00 5.0334936770000001e+00
0.0000000000000000e+00 9.2490053139999997e+00
ITEM: ATOMS id type v_vir_xx v_vir_yy v_vir_zz v_vir_xy v_vir_xz v_vir_yz
1 2      -2.743800900092      -3.281552411593      -3.123786398910       0.700764596794       1.128186543713      -1.249606271564
2 2      -2.743860634608      -3.281530189181      -3.123793229943      -0.700754128754      -1.128211985654      -1.249557800925
3 2      -4.582394660085      -5.212451817227      -4.076235700392      -0.581325594658      -0.436269718347       0.549859783892
4 2      -4.582409692546      -5.212429002172      -4.076316381553       0.581265928015       0.436231149967       0.549905340665
5 2      -3.539667922915      -4.139405464486      -3.146368725879      -0.223108295735       0.700181426551      -0.039536479895
6 2      -3.729936795594      -4.450508690553      -4.700374264808       0.290727017960      -0.584949022400      -1.338520939278
7 2      -3.730044892092      -4.450503843821      -4.700456237559      -0.290688314354       0.584909426330      -1.338492812024
8 2      -3.539686219173      -4.139473794393      -3.146261748042       0.223048960856      -0.700204694528      -0.039550113707
9 2      -4.582492304727      -5.212762695822      -4.074943167936       0.579163832881      -0.435510736083      -0.550347559308
10 2      -4.582488076900      -5.212955878372      -4.074942628988      -0.579216063960       0.435535816021      -0.550395141135
11 2      -2.746592836405      -3.282107433023      -3.126940634275      -0.699189617275       1.129439846115       1.247090154084
12 2      -2.746622109609      -3.282044288742      -3.126913072534       0.699221488670      -1.129446271795       1.247029857018
13 2      -3.536669394410      -4.139099246286      -3.146287360864      -0.224829187226      -0.701694657403       0.036519751929
14 2      -3.726833124928      -4.454048034874      -4.702846153482      -0.290021862278      -0.585925269812       1.338272672983
15 2      -3.726859683086      -4.454071231821      -4.702822379056       0.290083110858       0.586034802826       1.338294781008
16 2      -3.536697095583      -4.139111499140      -3.146205620840       0.224848837971       0.701766535429       0.036493653833
17 1       0.670136570095       0.930039245998       0.663970288073       0.302795669033       0.664845357164      -0.696465400423
18 1       0.177685025074       0.858761045236       1.022878921693      -0.366970915944      -0.875824550133      -0.418165274380
19 1       1.202677586619       1.093616057969       0.466324553815      -0.224607781825      -0.381778341479      -0.628343647791
20 1       2.460479442400       2.520961596674       2.508619764693      -0.425238973644      -0.715456898094      -0.884424321203
21 1       0.670113132719       0.929974253819       0.664003769393      -0.302795518873      -0.664845106303      -0.696453591416
22 1       2.256583979368       1.906332035821       1.934994358234      -0.046569613031      -0.152687506106      -0.334229664026
23 1       1.202624498554       1.093661982527       0.466339904363       0.224594529331       0.381756213843      -0.628376522946
24 1       2.460475706176       2.520917333457       2.508642133436       0.425239689747       0.715414651695      -0.884425813466
25 1       2.256868677534       1.904687231005       1.934845483236      -0.046417210126       0.153585948749       0.334503246729
26 1       0.670072687592       0.925082325522       0.661525325782      -0.302249627507       0.665004597224       0.695838570709
27 1       2.457485231168       2.516689246262       2.507459578200      -0.424563882332       0.717664610562       0.885323392498
28 1       1.201501115590       1.092700630928       0.466101306895      -0.224306115563       0.381465670552       0.627395470506
29 1       0.176680805350       0.860191181032       1.023669258248      -0.370059022214       0.874142519580       0.416448154705
30 1       0.670082079328       0.924997526986       0.661499398492       0.302237387214      -0.665006830339       0.695782985547
31 1       1.430901052902       2.500922012334       1.974350048172      -0.023581463458       0.209602061883       0.167420807540
32 1       1.430344654700       2.502761980480       1.974530751713      -0.026151932420      -0.208907034149      -0.166045989168
33 1       0.176680011946       0.860194101239       1.023704804226       0.370053566698      -0.874146983557       0.416474481969
34 1       2.256559672116       1.906368755448       1.935088761291       0.046572619951       0.152671565118      -0.334238571671
35 1       1.430862915776       2.500938688789       1.974407042078       0.023547474062      -0.209629179633       0.167411112320
36 1       1.430309989775       2.502741824197       1.974573043694       0.026110527831       0.208911072835      -0.166033602215
37 1       2.256903490181       1.904711344066       1.934836551947       0.046417739307      -0.153614090216       0.334488771343
38 1       0.177716541355       0.858766092606       1.022933783968       0.366994348740       0.875778803938      -0.418139604263
39 1       2.457517964878       2.516591820709       2.507466732831       0.424574018315      -0.717649520936       0.885322115832
40 1       1.201579100021       1.092537846478       0.466173096391       0.224297649270      -0.381480107350       0.627336605377
