ITEM: TIMESTEP
0
ITEM: NUMBER OF ATOMS
40
ITEM: BOX BOUNDS pp pp pp
0.0000000000000000e+00 8.8197354570000002e+00
0.0000000000000000e+00 5.1360088230000001e+00
0.0000000000000000e+00 9.4373760949999994e+00
ITEM: ATOMS id type x y z fx fy fz
1 2       1.383540000000       1.590520000000       8.380740000000       0.088471404379      -0.002674492357       0.047328384893
2 2       3.135610000000       4.158520000000       8.380740000000      -0.088476838344      -0.002622895682       0.047419416980
3 2       5.809150000000       0.906450000000       7.537880000000      -0.033049063527      -0.009204875627      -0.072608336540
4 2       7.529730000000       3.474460000000       7.537880000000       0.033079830882      -0.009358263051      -0.072593963677
5 2       4.750400000000       3.477920000000       5.626410000000       0.162718215111      -0.132718273267       0.138244419716
6 2       1.480770000000       3.525360000000       5.752380000000       0.091565854752      -0.119768395998       0.228103316179
7 2       3.038380000000       0.957350000000       5.752380000000      -0.091631589144      -0.119631978383       0.228071593351
8 2       8.588490000000       0.909910000000       5.626410000000      -0.162712409203      -0.132610878477       0.138336511047
9 2       1.399310000000       1.661190000000       2.819010000000      -0.033970230692       0.008527030987      -0.070795136297
10 2       3.119840000000       4.229190000000       2.819020000000       0.034107317713       0.008588546112      -0.071000391597
11 2       5.792270000000       0.978300000000       3.662050000000       0.090465946881       0.002149995700       0.050495536122
12 2       7.546620000000       3.546300000000       3.662040000000      -0.090510051707       0.002199004935       0.050626083367
13 2       4.179520000000       1.658500000000       0.908030000000      -0.158632826675       0.137290982859       0.139646288278
14 2       5.890460000000       4.178640000000       1.033400000000       0.092749675635       0.120802006714       0.228167937216
15 2       7.448430000000       1.610640000000       1.033400000000      -0.092745039184       0.120687078659       0.228090546556
16 2       0.339630000000       4.226510000000       0.908030000000       0.158661684868       0.137240761235       0.139704553604
17 1       7.364440000000       1.786940000000       4.447740000000       0.038271489473      -0.044472721536       0.024442992022
18 1       0.039740000000       0.780790000000       0.046080000000       0.081530574207      -0.084621169487      -0.002371886412
19 1       7.396020000000       0.092660000000       6.974340000000       0.000536153348       0.079682038928      -0.107233616768
20 1       7.321410000000       4.990010000000       2.138370000000       0.066888667492      -0.089636644236      -0.125018462751
21 1       5.974450000000       4.354950000000       4.447740000000      -0.038254323899      -0.044596517808       0.024445726405
22 1       7.476600000000       3.359670000000       9.419900000000       0.009097639222      -0.045136542243      -0.137758827163
23 1       5.942860000000       2.660670000000       6.974340000000      -0.000550509803       0.079515970704      -0.107188499826
24 1       6.017490000000       2.422000000000       2.138370000000      -0.066951011796      -0.089488023545      -0.124913350974
25 1       1.451890000000       1.776140000000       4.701270000000      -0.008271075078       0.044265909300      -0.137963942771
26 1       2.955490000000       0.781820000000       9.166590000000       0.036548308344       0.043609462939       0.025492677399
27 1       1.609110000000       0.144860000000       6.858140000000      -0.065241488532       0.088270145481      -0.120639852401
28 1       1.533060000000       5.042880000000       2.255700000000      -0.001145824218      -0.077343449395      -0.106595530056
29 1       0.070110000000       4.355900000000       4.764840000000      -0.080113512014       0.083153245168      -0.001242608404
30 1       1.563660000000       3.349820000000       9.166590000000      -0.036597615692       0.043742603124       0.025584093140
31 1       0.153070000000       2.444870000000       6.924260000000      -0.148883060165       0.044516684800      -0.000710449691
32 1       8.775530000000       2.690680000000       2.205850000000       0.150088916354      -0.046752422720       0.000690539207
33 1       4.449040000000       1.787890000000       4.764840000000       0.080097573280       0.083303739779      -0.001141404229
34 1       5.862280000000       0.791670000000       9.419900000000      -0.009034656228      -0.045170506112      -0.137787172307
35 1       4.366070000000       5.012870000000       6.924260000000       0.148946530828       0.044552277349      -0.000724799451
36 1       4.563360000000       0.122680000000       2.205850000000      -0.150123601034      -0.046859687990       0.000757939315
37 1       3.067260000000       4.344140000000       4.701270000000       0.008301235658       0.044264718382      -0.137857075035
38 1       4.479410000000       3.348800000000       0.046080000000      -0.081518196184      -0.084733282475      -0.002304811199
39 1       2.910030000000       2.712860000000       6.858150000000       0.065218377888       0.088272205204      -0.120677698059
40 1       2.986100000000       2.474870000000       2.255700000000       0.001067526802      -0.077233387971      -0.106520739188
