ITEM: TIMESTEP
0
ITEM: NUMBER OF ATOMS
40
ITEM: BOX BOUNDS pp pp pp
0.0000000000000000e+00 8.8197354570000002e+00
0.0000000000000000e+00 5.1360088230000001e+00
0.0000000000000000e+00 9.4373760949999994e+00
ITEM: ATOMS id type c_pe_atom
1 2      -4.810991044418
2 2      -4.810987069666
3 2      -4.431567449565
4 2      -4.431565519421
5 2      -4.926494561155
6 2      -4.765461474655
7 2      -4.765463049940
8 2      -4.926501223182
9 2      -4.431421096360
10 2      -4.431425639820
11 2      -4.809674273940
12 2      -4.809684565254
13 2      -4.927808705845
14 2      -4.765386284163
15 2      -4.765388583032
16 2      -4.927810536935
17 1     -11.181878517414
18 1     -11.177766055108
19 1     -11.110503804792
20 1     -10.571587167964
21 1     -11.181880078383
22 1     -11.088319898139
23 1     -11.110504788081
24 1     -10.571588800517
25 1     -11.087951389979
26 1     -11.181902690992
27 1     -10.570542394271
28 1     -11.110662833133
29 1     -11.178743227581
30 1     -11.181907049771
31 1     -11.047280071620
32 1     -11.047317105679
33 1     -11.178746344891
34 1     -11.088316150336
35 1     -11.047290678321
36 1     -11.047307170999
37 1     -11.087958206161
38 1     -11.177758090602
39 1     -10.570534681662
40 1     -11.110662396318
