40
Config_type=bulk_kappa_phase Weight=1.0 Lattice="8.819735457 0.000000000 0.000000000 0.000000000 5.136008823 0.000000000 0.000000000 0.000000000 9.437376095" Energy=-340.52715080 Virial="-2.67970 -0.00072 -0.00530 -0.00072 -2.94115 0.02246 -0.00530 0.02246 -2.54520" pbc="T T T" Properties=species:S:1:pos:R:3:forces:R:3
Ga	      1.38354      1.59052      8.38074        -0.008036     -0.001353      0.007711
Ga	      3.13561      4.15852      8.38074         0.009994     -0.001789      0.007303
Ga	      5.80915      0.90645      7.53788         0.000024     -0.001574     -0.002379
Ga	      7.52973      3.47446      7.53788        -0.002345     -0.000155     -0.003522
Ga	      4.75040      3.47792      5.62641        -0.001007      0.007922     -0.002127
Ga	      1.48077      3.52536      5.75238         0.005220      0.011487     -0.007758
Ga	      3.03838      0.95735      5.75238        -0.004508      0.011834     -0.009686
Ga	      8.58849      0.90991      5.62641         0.001164      0.007399     -0.003226
Ga	      1.39931      1.66119      2.81901        -0.001615      0.000013     -0.003232
Ga	      3.11984      4.22919      2.81902        -0.000030     -0.000181     -0.002641
Ga	      5.79227      0.97830      3.66205        -0.003575     -0.000002      0.008861
Ga	      7.54662      3.54630      3.66204         0.003969     -0.000258      0.008966
Ga	      4.17952      1.65850      0.90803         0.002941     -0.005463     -0.002825
Ga	      5.89046      4.17864      1.03340         0.004972     -0.012554     -0.008401
Ga	      7.44843      1.61064      1.03340        -0.005885     -0.011676     -0.008733
Ga	      0.33963      4.22651      0.90803        -0.000449     -0.005558     -0.002812
O	      7.36444      1.78694      4.44774         0.003498     -0.011728     -0.001407
O	      0.03974      0.78079      0.04608         0.002523      0.003267      0.012939
O	      7.39602      0.09266      6.97434        -0.009443     -0.002921     -0.000278
O	      7.32141      4.99001      2.13837        -0.008366     -0.015762     -0.007254
O	      5.97445      4.35495      4.44774        -0.002744     -0.011935     -0.001265
O	      7.47660      3.35967      9.41990         0.003297     -0.003712      0.000566
O	      5.94286      2.66067      6.97434         0.009083     -0.003822      0.000107
O	      6.01749      2.42200      2.13837         0.007522     -0.016089     -0.006828
O	      1.45189      1.77614      4.70127        -0.002801      0.004688      0.000408
O	      2.95549      0.78182      9.16659         0.001215      0.010837     -0.000842
O	      1.60911      0.14486      6.85814         0.006602      0.015795     -0.006545
O	      1.53306      5.04288      2.25570         0.009223      0.005524      0.000372
O	      0.07011      4.35590      4.76484        -0.000941     -0.004151      0.014070
O	      1.56366      3.34982      9.16659        -0.001732      0.011543     -0.000475
O	      0.15307      2.44487      6.92426        -0.009605      0.001100      0.000117
O	      8.77553      2.69068      2.20585         0.011219     -0.002057      0.000068
O	      4.44904      1.78789      4.76484         0.000890     -0.003660      0.013552
O	      5.86228      0.79167      9.41990        -0.003884     -0.004400     -0.000687
O	      4.36607      5.01287      6.92426         0.009934      0.001421      0.000211
O	      4.56336      0.12268      2.20585        -0.010979     -0.001782      0.000594
O	      3.06726      4.34414      4.70127         0.002164      0.004246      0.000830
O	      4.47941      3.34880      0.04608        -0.002000      0.003050      0.013215
O	      2.91003      2.71286      6.85815        -0.006645      0.016394     -0.007430
O	      2.98610      2.47487      2.25570        -0.008864      0.006062      0.000459
