ITEM: TIMESTEP
0
ITEM: NUMBER OF ATOMS
20
ITEM: BOX BOUNDS xy xz yz pp pp pp
-1.3874819387120001e+00 1.2435526218410001e+01 0.0000000000000000e+00
0.0000000000000000e+00 3.0795494909999999e+00 -1.3874819387120001e+00
0.0000000000000000e+00 5.7012215643369997e+00 0.0000000000000000e+00
ITEM: ATOMS id type c_pe_atom
1 2      -5.521997186242
2 2      -5.522076057723
3 2      -8.807390594377
4 2      -8.807370158639
5 2      -5.522015361397
6 2      -5.521987052405
7 2      -8.807402375729
8 2      -8.807388162589
9 1      -4.028965349048
10 1      -4.028901311855
11 1      -7.460858937032
12 1      -7.460821458150
13 1      -4.027653526309
14 1      -4.027693890632
15 1      -4.028901309059
16 1      -4.028873741538
17 1      -7.460847844826
18 1      -7.460894708472
19 1      -4.027684951246
20 1      -4.027666595667
