ITEM: TIMESTEP
0
ITEM: NUMBER OF ATOMS
20
ITEM: BOX BOUNDS xy xz yz pp pp pp
-1.3874819387120001e+00 1.2435526218410001e+01 0.0000000000000000e+00
0.0000000000000000e+00 3.0795494909999999e+00 -1.3874819387120001e+00
0.0000000000000000e+00 5.7012215643369997e+00 0.0000000000000000e+00
ITEM: ATOMS id type v_vir_xx v_vir_yy v_vir_zz v_vir_xy v_vir_xz v_vir_yz
1 2      -1.269490298795      -0.501887265267      -3.568991983444      -0.000004022020       0.390989654747      -0.000009432803
2 2      -1.269461992273      -0.501886948247      -3.568856022491      -0.000004023480       0.390991847879      -0.000009432323
3 2      -2.916189711198      -2.762318432297      -1.176938236816       0.000030372411       0.059178970792       0.000008575960
4 2      -2.916215530468      -2.762306228639      -1.176938162790       0.000030370904       0.059211729463       0.000008574954
5 2      -1.269474916584      -0.501923155783      -3.569012565250       0.000004023397       0.391012551462       0.000009430674
6 2      -1.269500184117      -0.501893335304      -3.569011213140       0.000004022195       0.390994656279       0.000009433599
7 2      -2.916221528412      -2.762321283912      -1.176880598186      -0.000030370012       0.059220698189      -0.000008574483
8 2      -2.916199724154      -2.762326656462      -1.176948079770      -0.000030372575       0.059179268784      -0.000008575908
9 1       1.432524781993       0.207064122312      -0.128261016503       0.000043447085       0.446712925698       0.000013905646
10 1       1.432537566092       0.207077367970      -0.128229672468       0.000043445383       0.446703255574       0.000013905765
11 1       1.608730027504       1.236993832957       2.819987828718       0.000013514757      -0.223385510200       0.000002594258
12 1       1.608686487071       1.236987332061       2.819959606577       0.000013515353      -0.223351212770       0.000002595015
13 1       0.609175101941       1.429371498297       1.629078529778       0.000007138463      -0.603783924377      -0.000010075902
14 1       0.609170692558       1.429360655534       1.629112507008       0.000007137627      -0.603792921307      -0.000010077063
15 1       1.432537900591       0.207077917226      -0.128230890663      -0.000043445380       0.446706933552      -0.000013905783
16 1       1.432547293694       0.207082087498      -0.128252936247      -0.000043445800       0.446713041535      -0.000013904687
17 1       1.608702004186       1.236997204351       2.819990986863      -0.000013514956      -0.223367703049      -0.000002595423
18 1       1.608726977381       1.236985398697       2.819993865658      -0.000013513718      -0.223390170027      -0.000002593037
19 1       0.609190921541       1.429375529764       1.629124101317      -0.000007137926      -0.603796570304       0.000010079269
20 1       0.609180153009       1.429342003424       1.629163115615      -0.000007138113      -0.603759293067       0.000010077618
