80
Config_type=bulk_delta_phase Weight=1.0 Lattice="9.222725664 0.000000000 0.000000000 0.000000000 9.222725664 0.000000000 0.000000000 0.000000000 9.222725664" Energy=-678.27100360 Virial="61.64983 -0.00004 -0.00002 -0.00004 61.64987 0.00002 -0.00002 0.00002 61.64978" pbc="T T T" Properties=species:S:1:pos:R:3:forces:R:3
Ga	      6.91704      2.30568      2.30568         0.000117      0.000008      0.000061
Ga	      6.91704      4.28565      4.61136         0.000102      0.002694      0.000078
Ga	      0.00000      6.91704      0.32571        -0.000008      0.000086     -0.002664
Ga	      0.00000      2.30568      4.28565        -0.000034      0.000046      0.002733
Ga	      0.32571      0.00000      6.91704        -0.002659      0.000003      0.000077
Ga	      0.32571      4.61136      2.30568        -0.002651      0.000041      0.000048
Ga	      2.30568      4.28565      0.00000         0.000064      0.002730     -0.000031
Ga	      2.30568      6.91704      2.30568         0.000063      0.000126      0.000016
Ga	      2.30568      2.30568      2.30568         0.000043      0.000032      0.000049
Ga	      2.30568      2.30568      6.91704         0.000012      0.000061      0.000113
Ga	      2.30568      0.32571      4.61136         0.000044     -0.002634      0.000027
Ga	      4.28565      0.00000      2.30568         0.002734     -0.000030      0.000060
Ga	      4.28565      4.61136      6.91704         0.002705      0.000072      0.000097
Ga	      4.61136      2.30568      0.32571         0.000038      0.000046     -0.002648
Ga	      4.61136      6.91704      4.28565         0.000064      0.000103      0.002704
Ga	      6.91704      0.32571      0.00000         0.000080     -0.002665      0.000012
Ga	      2.30568      6.91704      6.91704         0.000046      0.000102      0.000110
Ga	      2.30568      8.89702      0.00000         0.000035      0.002549     -0.000006
Ga	      4.61136      2.30568      4.93707         0.000051      0.000033     -0.002650
Ga	      4.61136      6.91704      8.89702         0.000020      0.000098      0.002531
Ga	      4.93707      4.61136      2.30568        -0.002647      0.000053      0.000037
Ga	      4.93707      0.00000      6.91704        -0.002659     -0.000047      0.000116
Ga	      6.91704      8.89702      4.61136         0.000105      0.002535      0.000009
Ga	      6.91704      2.30568      6.91704         0.000116      0.000065      0.000097
Ga	      6.91704      6.91704      6.91704         0.000068      0.000062      0.000079
Ga	      6.91704      6.91704      2.30568         0.000104      0.000120      0.000047
Ga	      6.91704      4.93707      0.00000         0.000114     -0.002652     -0.000052
Ga	      8.89702      4.61136      6.91704         0.002521      0.000020      0.000098
Ga	      8.89702      0.00000      2.30568         0.002561     -0.000012      0.000035
Ga	      0.00000      6.91704      4.93707        -0.000045      0.000116     -0.002663
Ga	      0.00000      2.30568      8.89702        -0.000018      0.000033      0.002560
Ga	      2.30568      4.93707      4.61136         0.000037     -0.002646      0.000056
O	      8.14555      5.61560      1.45263         0.002290     -0.003833      0.004335
O	      8.14555      3.60713      3.15874         0.002285      0.003752     -0.004449
O	      8.21849      1.45263      1.07718         0.003798      0.004373     -0.002361
O	      8.21849      3.15874      5.68854         0.003762     -0.004463     -0.002373
O	      1.00424      3.15874      1.07718        -0.003865     -0.004482     -0.002429
O	      1.00424      1.45263      5.68854        -0.003903      0.004372     -0.002303
O	      1.07718      8.21849      1.45263        -0.002308      0.003801      0.004343
O	      1.07718      1.00424      3.15874        -0.002414     -0.003858     -0.004527
O	      1.45263      5.68854      1.00424         0.004408     -0.002405     -0.003900
O	      1.45263      3.53418      3.60713         0.004400      0.002452      0.003784
O	      1.45263      1.07718      8.21849         0.004348     -0.002348      0.003808
O	      1.45263      8.14555      5.61560         0.004319      0.002282     -0.003780
O	      3.15874      3.53418      5.61560        -0.004505      0.002495     -0.003879
O	      3.15874      1.07718      1.00424        -0.004512     -0.002419     -0.003891
O	      3.15874      8.14555      3.60713        -0.004428      0.002258      0.003716
O	      3.15874      5.68854      8.21849        -0.004517     -0.002401      0.003824
O	      3.53418      3.60713      1.45263         0.002373      0.003783      0.004341
O	      3.53418      5.61560      3.15874         0.002455     -0.003844     -0.004443
O	      3.60713      1.45263      3.53418         0.003797      0.004399      0.002394
O	      3.60713      3.15874      8.14555         0.003702     -0.004458      0.002338
O	      5.61560      1.45263      8.14555        -0.003817      0.004322      0.002291
O	      5.61560      3.15874      3.53418        -0.003831     -0.004466      0.002481
O	      5.68854      8.21849      3.15874        -0.002358      0.003772     -0.004453
O	      5.68854      1.00424      1.45263        -0.002334     -0.003876      0.004364
O	      3.53418      1.00424      6.06399         0.002516     -0.003880      0.004430
O	      3.53418      8.21849      7.77010         0.002449      0.003833     -0.004432
O	      3.60713      6.06399      5.68854         0.003745      0.004361     -0.002374
O	      3.60713      7.77010      1.07718         0.003723     -0.004402     -0.002351
O	      5.61560      7.77010      5.68854        -0.003854     -0.004403     -0.002375
O	      5.61560      6.06399      1.07718        -0.003806      0.004329     -0.002355
O	      5.68854      3.60713      6.06399        -0.002299      0.003744      0.004313
O	      5.68854      5.61560      7.77010        -0.002335     -0.003836     -0.004389
O	      6.06399      1.07718      5.61560         0.004342     -0.002382     -0.003818
O	      6.06399      8.14555      8.21849         0.004357      0.002347      0.003761
O	      6.06399      5.68854      3.60713         0.004351     -0.002346      0.003776
O	      6.06399      3.53418      1.00424         0.004405      0.002493     -0.003892
O	      7.77010      8.14555      1.00424        -0.004446      0.002373     -0.003865
O	      7.77010      5.68854      5.61560        -0.004439     -0.002393     -0.003867
O	      7.77010      3.53418      8.21849        -0.004436      0.002450      0.003839
O	      7.77010      1.07718      3.60713        -0.004436     -0.002361      0.003749
O	      8.14555      8.21849      6.06399         0.002322      0.003791      0.004361
O	      8.14555      1.00424      7.77010         0.002374     -0.003870     -0.004420
O	      8.21849      6.06399      8.14555         0.003749      0.004344      0.002320
O	      8.21849      7.77010      3.53418         0.003795     -0.004431      0.002452
O	      1.00424      6.06399      3.53418        -0.003863      0.004365      0.002474
O	      1.00424      7.77010      8.14555        -0.003844     -0.004393      0.002339
O	      1.07718      3.60713      7.77010        -0.002312      0.003736     -0.004360
O	      1.07718      5.61560      6.06399        -0.002322     -0.003826      0.004315
