20
Config_type=bulk_beta_phase Weight=1.0 Lattice="11.913358981 0.000000000 -2.899303286 0.000000000 3.036349398 0.000000000 0.000000000 0.000000000 5.785314494" Energy=-170.37921240 Virial="10.12381 -0.00000 0.39100 -0.00000 11.35340 -0.00000 0.39100 -0.00000 11.43766" pbc="T T T" Properties=species:S:1:pos:R:3:forces:R:3
Ga	      1.89535      1.51817      1.35282         0.031917      0.000060     -0.015220
Ga	      4.06133      0.00000      2.98284        -0.032079     -0.000054      0.015286
Ga	      1.08288      0.00000      4.33978         0.009844     -0.000085     -0.021334
Ga	      4.87380      1.51817     -0.00412        -0.009924      0.000090      0.021479
Ga	      7.85203      0.00000     -0.09683         0.031963     -0.000056     -0.015281
Ga	     10.01801      1.51817      1.53319        -0.032077      0.000061      0.015307
Ga	      7.03955      1.51817      2.89013         0.010057      0.000091     -0.021421
Ga	     10.83048      0.00000     -1.45377        -0.009938     -0.000085      0.021454
O	      5.91797      0.00000      0.02946         0.006203     -0.000100     -0.001213
O	      0.03870      1.51817      4.30620        -0.006035      0.000096      0.001234
O	      2.05325      0.00000      2.74500         0.004931     -0.000034      0.000744
O	      3.90342      1.51817      1.59066        -0.004792      0.000031     -0.000726
O	      3.94680      1.51817      4.19677        -0.001035      0.000052      0.004566
O	      2.00988      0.00000      0.13890         0.000942     -0.000056     -0.004792
O	     11.87465      1.51817     -1.42019         0.006248      0.000096     -0.001221
O	      5.99538      0.00000      2.85655        -0.006178     -0.000099      0.001209
O	      8.00993      1.51817      1.29535         0.004865      0.000030      0.000734
O	      9.86010      0.00000      0.14101        -0.004829     -0.000034     -0.000723
O	      9.90348      0.00000      2.74712        -0.001029     -0.000055      0.004539
O	      7.96656      1.51817     -1.31076         0.000942      0.000050     -0.004622
