ITEM: TIMESTEP
0
ITEM: NUMBER OF ATOMS
160
ITEM: BOX BOUNDS pp pp pp
0.0000000000000000e+00 8.5162511260000002e+00
0.0000000000000000e+00 8.5162511260000002e+00
0.0000000000000000e+00 2.5548753377000001e+01
ITEM: ATOMS id type x y z fx fy fz
1 2       1.234510000000       5.287700000000      22.477060000000      -0.419340127668       0.226500182897      -0.018184600108
2 2       5.293310000000       0.859900000000      13.904120000000       0.068863172191       0.071295092756      -0.278801346050
3 2       7.286670000000       7.532780000000       7.511510000000       0.015793873132      -0.264478711994      -0.203880785214
4 2       7.414330000000       7.254670000000      16.035180000000       0.108745994611       0.564634827042       0.022221550382
5 2       5.316900000000       5.331230000000       0.998240000000       0.301620000216       0.142565713880      -0.013916225398
6 2       3.084710000000       3.255740000000       7.326720000000       0.086997425950      -0.189996187119       0.106204841589
7 2       0.970760000000       1.063070000000       1.097810000000       0.165112177407       0.266132082506      -0.155371041025
8 2       5.260180000000       1.040170000000       5.332270000000      -0.026994088171       0.294674264379      -0.111270278668
9 2       3.238540000000       3.022280000000      15.931790000000      -0.085366849477       0.161006555312       0.038752010539
10 2       5.470680000000       1.140650000000      22.286040000000      -0.043705369520       0.093561881711       0.232387617815
11 2       3.199430000000       7.380450000000      11.710580000000      -0.216963483741       0.048578575801      -0.018433476108
12 2       7.552430000000       3.256230000000      20.149630000000      -0.099992000623      -0.446710932314       0.087528876335
13 2       1.038100000000       5.184990000000      13.713380000000       0.007124299760       0.234145025382       0.075965211932
14 2       7.451870000000       3.282060000000       3.259100000000      -0.341620199806      -0.139397108896       0.019411761496
15 2       5.184360000000       5.415530000000       9.535560000000       0.254442612751      -0.072666367041       0.165171723570
16 2       7.485140000000       7.574140000000      24.509790000000       0.028584928833      -0.361334147154      -0.081863958634
17 2       3.247150000000       7.575020000000      20.258470000000       0.147582572476      -0.254852656901      -0.167278285589
18 2       0.933270000000       1.092900000000       9.692210000000       0.222369439337      -0.149813520397      -0.192940475060
19 2       3.278790000000       7.550690000000       3.162740000000      -0.145558464372      -0.236068311693       0.085819046000
20 2       1.201110000000       1.044260000000      18.121510000000      -0.348965903477      -0.073409884797      -0.145435574469
21 2       4.008440000000       0.181950000000       8.527520000000       0.088838876612      -0.067860766262       0.006484744236
22 2       6.238090000000       6.225170000000      12.752310000000       0.340106297211      -0.090076266628      -0.156098311148
23 2       2.195070000000       2.156910000000      21.307080000000       0.000111598090      -0.085188780698       0.090246848011
24 2       6.520210000000       6.415290000000      21.274570000000      -0.069331807501      -0.053249690390       0.344194104834
25 2       2.002550000000       6.519730000000       8.429810000000      -0.178151787604      -0.247987040267      -0.046855448139
26 2       8.457570000000       2.102870000000       6.346130000000      -0.304265820633      -0.221293094021       0.170666293548
27 2       2.029180000000       2.136250000000       4.292880000000       0.185904846810      -0.106381346095      -0.255723646161
28 2       0.065240000000       2.051490000000      14.881350000000      -0.242756252882      -0.094851786217       0.328759314896
29 2       0.157490000000       6.316780000000      19.112980000000       0.110044718399       0.356187689454       0.345421110937
30 2       6.376720000000       0.055340000000       2.140740000000       0.024332667440      -0.014631390047      -0.047439148571
31 2       6.198090000000       0.071500000000      10.705760000000       0.447806386007      -0.131221329223       0.248142696735
32 2       4.232000000000       2.233800000000      19.114350000000       0.417548073961       0.187365461963      -0.266931564902
33 2       6.522110000000       8.496450000000      19.179030000000      -0.200984061163       0.541601458731      -0.280579328279
34 2       6.465510000000       2.069670000000      17.003230000000      -0.081320753585      -0.520099852794       0.339140214479
35 2       0.164470000000       2.093770000000      23.480420000000       0.007027590809       0.260681675234       0.112636061117
36 2       2.078400000000       8.306510000000      14.993120000000      -0.145572331232       0.146841072072      -0.022369499160
37 2       4.074900000000       6.138020000000      14.909890000000       0.169005377236       0.106641126850       0.167770290839
38 2       6.335760000000       4.273290000000       6.426720000000      -0.241606436568       0.253009420748      -0.339013483771
39 2       4.290130000000       6.484130000000      23.459470000000       0.351737260563       0.448558217750      -0.152227113443
40 2       0.091820000000       4.255040000000      17.025470000000       0.196110909406      -0.298734790261      -0.194900459442
41 2       2.125280000000       4.314200000000       2.128280000000      -0.028141873631      -0.011941002725      -0.015786070663
42 2       4.186720000000       4.387050000000      21.234070000000       0.340803808849      -0.085765107619      -0.222226853853
43 2       4.206520000000       8.325070000000      17.093090000000       0.428814433070       0.100472619934       0.287737265674
44 2       6.434190000000       4.308370000000      23.349370000000       0.383935979974      -0.100100555421       0.380814593694
45 2       8.454800000000       6.334720000000      10.610810000000      -0.213731132875       0.210059241263       0.309340304409
46 2       8.505480000000       8.432660000000      12.808170000000      -0.161001570142      -0.192373869611      -0.244940615753
47 2       0.012920000000       4.357220000000       0.051710000000      -0.346986224789      -0.109052761600      -0.296512844858
48 2       6.310720000000       4.128790000000      14.867940000000       0.144844898967      -0.005190344248      -0.271125143592
49 2       4.228340000000       4.254480000000       4.208190000000       0.343890578344       0.167260780711       0.267510782566
50 2       2.156940000000       2.068860000000      12.707630000000       0.296011199114      -0.295167527270       0.223736503998
51 2       2.123330000000       4.193160000000      10.665580000000       0.223536373108       0.280929884033      -0.235442808805
52 2       0.039680000000       6.555630000000       2.231540000000       0.077690234917      -0.282701391257       0.096819692231
53 2       0.208380000000       8.475130000000      21.393000000000      -0.272955366445      -0.030534857449      -0.008774947028
54 2       4.191520000000       2.057800000000       2.019970000000      -0.045386892417       0.278999178056      -0.053174397920
55 2       6.311130000000       2.078950000000      25.499580000000      -0.108307198387       0.344332431972      -0.138181105543
56 2       8.508970000000       4.196030000000       8.513830000000      -0.173641987692       0.177490083152      -0.024615545594
57 2       6.177100000000       2.196520000000       8.615300000000       0.249004667799       0.180150713193       0.023027617458
58 2       4.093290000000       6.534170000000       6.331000000000       0.026895472049      -0.375703855222      -0.277493709314
59 2       6.443550000000       6.538380000000       4.317850000000       0.154567136239      -0.413648531669       0.121214876966
60 2       2.217580000000       6.488760000000      25.520820000000      -0.266509930700       0.111323722488       0.223912146087
61 2       5.237100000000       3.167000000000      11.748800000000      -0.045284840377       0.013299982718      -0.005217991592
62 2       3.232100000000       1.077840000000      24.459720000000       0.101723254239      -0.214303310989       0.111282150227
63 2       3.205750000000       5.262890000000      18.086960000000      -0.056988675153      -0.010029892380      -0.033965768006
64 2       1.006030000000       7.535310000000       5.320880000000      -0.075821820636       0.053784712273      -0.081651587015
65 1       2.159280000000       2.169290000000       2.148940000000       0.294636306137       0.086730506505       0.253632329016
66 1       6.264690000000       6.330630000000       6.348280000000       0.049152992120      -0.166719690688      -0.226523532665
67 1       4.357900000000       8.433720000000       6.541830000000       0.007213407869       0.128322437412      -0.138297595648
68 1       4.383450000000       0.132220000000       2.158670000000      -0.019714772299      -0.078575664113      -0.075681749700
69 1       8.383650000000       6.519660000000       4.177660000000       0.242564934614       0.007561526212       0.217414413575
70 1       0.042510000000       2.259630000000       4.353260000000       0.133718536283      -0.206126739924       0.085840931329
71 1       6.279350000000       4.222360000000       8.488480000000       0.206921771549      -0.327122135348      -0.093021480916
72 1       1.906270000000       4.541550000000       0.268710000000      -0.116924785954      -0.277388934631       0.219913563340
73 1       8.501020000000       4.432190000000       2.119680000000       0.272478668580       0.070238678236      -0.106517227527
74 1       8.217650000000       4.057840000000       6.656700000000      -0.048876584886       0.160954129389       0.222550399097
75 1       4.370940000000       2.092740000000       0.071530000000      -0.254369801211       0.032800671211      -0.159471146825
76 1       4.083630000000       6.477120000000       8.379090000000      -0.195472285398       0.130243563077      -0.134214683926
77 1       2.143250000000       0.077720000000       4.245250000000       0.098177882237       0.225498776454      -0.031213390351
78 1       6.228890000000       8.450300000000       4.155650000000       0.010089230222       0.256358031631       0.039497048467
79 1       2.148630000000       6.549120000000       6.477060000000      -0.188557585960       0.044321612767      -0.244947226365
80 1       6.328490000000       2.147600000000       2.067640000000      -0.101109727871      -0.252625091974      -0.089212747677
81 1       4.260450000000       4.186600000000       2.135640000000      -0.272914628157      -0.109300234777       0.122667784844
82 1       4.292270000000       4.399870000000       6.264940000000      -0.124242749013      -0.089370307644      -0.047433629568
83 1       8.320920000000       2.135990000000       8.514730000000      -0.026318883866       0.170464567759      -0.274914242813
84 1       0.037800000000       6.411690000000       0.078520000000       0.361126712026      -0.086488411041      -0.076159123040
85 1       8.377540000000       0.066250000000       6.408870000000       0.134644911552       0.266452232664      -0.006625787150
86 1       8.373860000000       8.484620000000       2.098180000000       0.015773466179       0.064111659937       0.079679737789
87 1       4.304750000000       6.331220000000       4.314860000000      -0.088072562339      -0.020777135640       0.137704970446
88 1       4.193730000000       2.201470000000       4.186400000000      -0.289465343459       0.036904170504       0.075547275772
89 1       6.361420000000       2.191350000000       6.450440000000       0.317350259408       0.031125238413       0.016848196514
90 1       2.085850000000       6.451860000000       2.105070000000      -0.298354662339      -0.072850423275      -0.215747246633
91 1       2.336680000000       4.085320000000       3.986410000000       0.131192258835       0.270553795761      -0.193501776695
92 1       6.263050000000       4.394290000000       4.349570000000       0.090699220462       0.018114559217       0.077237655068
93 1       6.515700000000       0.164980000000       0.116100000000      -0.009271416352      -0.203567848992      -0.003778357857
94 1       2.093670000000       8.466020000000       8.712740000000       0.117051464303       0.372743296268       0.086470732460
95 1       6.427930000000       6.470650000000       2.193080000000       0.076455796499       0.232684276092       0.135354802533
96 1       1.930680000000       2.244380000000       6.252670000000      -0.068414778504      -0.137468574939       0.091590451881
97 1       2.007500000000       2.207220000000      10.741140000000       0.278956824906       0.089413286331      -0.002460845479
98 1       6.312510000000       6.215520000000      14.831570000000      -0.159251896755      -0.248792355566      -0.205998521711
99 1       4.180950000000       8.333310000000      15.049810000000      -0.097310451922      -0.238503517174       0.165836041164
100 1       4.300110000000       8.314450000000      10.503680000000      -0.221020351657       0.062899883913       0.115426004324
101 1       8.367810000000       6.393400000000      12.667550000000       0.059446126301      -0.075992211477      -0.070949997325
102 1       0.201150000000       1.792050000000      13.015700000000      -0.168679790672      -0.099116208769       0.004330792015
103 1       6.683250000000       3.935630000000      16.748080000000      -0.170807017225      -0.098750680417      -0.040259116948
104 1       2.061300000000       4.380200000000       8.513840000000      -0.158616966506       0.008106537808       0.285183546421
105 1       0.155220000000       4.456770000000      10.371670000000      -0.217929732454       0.071192410940      -0.211770133367
106 1       0.017630000000       4.082250000000      14.907030000000      -0.167995931284      -0.042716238076       0.275691688510
107 1       4.227010000000       2.102630000000       8.321040000000      -0.427362741497      -0.102302278016      -0.058868539061
108 1       4.145510000000       6.405520000000      16.901350000000      -0.109857126827      -0.102650817995       0.271984601048
109 1       2.069270000000       8.478710000000      12.825150000000      -0.033483292376       0.308529865336      -0.107993906237
110 1       6.441830000000       8.355570000000      12.723860000000       0.128061788223       0.106062367620      -0.179348103856
111 1       2.148070000000       6.368060000000      14.707410000000       0.053685122941      -0.415277464089      -0.098866333526
112 1       6.179490000000       2.019880000000      10.561280000000      -0.021972519192       0.191705130698       0.206631929425
113 1       4.175180000000       4.306080000000      10.653830000000      -0.283524210086      -0.172925852944       0.042724247019
114 1       4.351540000000       4.219940000000      15.032840000000      -0.059303678374       0.245559310221       0.042405308117
115 1       0.035240000000       2.060880000000      16.924230000000      -0.016429198372       0.242359539271       0.051837887183
116 1       8.485180000000       6.418850000000       8.544350000000       0.326173031007      -0.209924925967       0.137312889446
117 1       0.054840000000       8.381980000000      14.910680000000       0.267581536186       0.074444486090      -0.045550224689
118 1       8.327950000000       8.386330000000      10.756730000000       0.150594937046       0.097463012348       0.059731299872
119 1       4.337980000000       6.487590000000      12.932200000000      -0.101575960220      -0.026242105076      -0.045155561804
120 1       4.228140000000       1.980680000000      12.828990000000      -0.294601189104       0.003479640171      -0.027570405313
121 1       6.481040000000       1.988220000000      14.932130000000       0.240012111450       0.382877953660       0.087407550373
122 1       2.033720000000       6.304200000000      10.580470000000      -0.056214658876      -0.243321563408       0.031366981570
123 1       2.045420000000       4.060270000000      12.627610000000       0.115934832100      -0.025571244329      -0.011484030981
124 1       6.263830000000       4.280300000000      12.904840000000      -0.091323394455      -0.189906631095      -0.199300062486
125 1       6.223500000000       0.111030000000       8.657980000000      -0.144053270520       0.209663031958       0.159781450046
126 1       2.274260000000       0.077750000000      16.926410000000      -0.253902115088      -0.108733846325       0.132869517354
127 1       6.399870000000       6.418250000000      10.697140000000       0.157711865826      -0.066809398645       0.261805611128
128 1       2.140230000000       1.920140000000      14.824300000000      -0.246252139911       0.019769440115      -0.327892552665
129 1       2.315450000000       2.009970000000      19.283750000000      -0.083085035123      -0.039458693146       0.010106339847
130 1       6.441550000000       6.424260000000      23.321590000000      -0.211070693156      -0.025682414363       0.052034707240
131 1       4.395790000000       0.043540000000      23.371850000000      -0.013663229289      -0.319148605183       0.023039118108
132 1       4.445750000000       0.062620000000      19.088620000000       0.063123970841      -0.173037065481      -0.079984096391
133 1       0.121590000000       6.457970000000      21.333980000000       0.075910488060       0.168278439614      -0.222805281716
134 1       0.123090000000       2.112120000000      21.351250000000       0.252576685224       0.011604553089       0.130058969488
135 1       6.501500000000       4.222930000000      25.450870000000      -0.074694808302      -0.042453296862      -0.091995595132
136 1       2.140150000000       4.108280000000      17.016670000000      -0.202891485298       0.063725893363      -0.008696578721
137 1       0.029430000000       4.332890000000      19.012420000000       0.248088085596       0.147164852316      -0.033325656212
138 1       8.478530000000       4.210800000000      23.532230000000       0.100467045138       0.123608442292      -0.004453382666
139 1       4.418240000000       1.982460000000      17.114590000000       0.087510522463       0.150740072780       0.102724658473
140 1       4.214360000000       6.353390000000      25.441630000000      -0.121728631211       0.206097709676      -0.054041105537
141 1       2.121210000000       0.141940000000      21.259370000000       0.025466889783      -0.044009450904       0.045062061501
142 1       6.585280000000       0.028460000000      21.216660000000       0.044738730557      -0.319835497523      -0.218993788557
143 1       2.309220000000       6.377470000000      23.560160000000      -0.023789273459       0.143674291428      -0.061768035045
144 1       6.403220000000       2.033610000000      19.072190000000      -0.084247691307      -0.013887055923      -0.119955497625
145 1       4.234130000000       4.179170000000      19.281590000000      -0.031686328473       0.168262789817      -0.284148345683
146 1       4.573950000000       4.558290000000      23.116540000000       0.060059571598      -0.194321519195      -0.084479283802
147 1       8.454970000000       2.283280000000      25.496780000000       0.097246975908       0.047837868558      -0.129223819267
148 1       8.502880000000       6.222470000000      17.131650000000       0.342056494048      -0.091449901411      -0.020810781044
149 1       8.410380000000       0.171680000000      23.313160000000       0.023355356901      -0.194296913108       0.131891921187
150 1       0.060170000000       8.482320000000      19.235110000000      -0.010920832530      -0.320169348543      -0.073241919677
151 1       4.420410000000       6.459520000000      21.304250000000       0.056560348650      -0.276772257632       0.195989101066
152 1       4.312130000000       2.236060000000      21.185430000000      -0.313640910240       0.248091199278      -0.135834035474
153 1       6.510950000000       2.285690000000      23.471360000000      -0.005131404423       0.087161766570       0.142880592971
154 1       2.184850000000       6.419600000000      19.194110000000      -0.141714637371       0.102566799738       0.055319307422
155 1       2.264720000000       4.144270000000      21.418930000000      -0.115630923009       0.078175475070      -0.081135589610
156 1       6.504860000000       4.377300000000      21.304770000000      -0.297835206147       0.115847774742       0.092040868032
157 1       6.349400000000       0.003240000000      17.112230000000       0.083052578287       0.049698569385       0.112107009678
158 1       2.107440000000       0.017840000000       0.012130000000      -0.070398966729      -0.165422089388       0.033505443698
159 1       6.745010000000       6.611580000000      19.407390000000      -0.183553054694       0.080307289187       0.018685881151
160 1       2.081330000000       2.057120000000      23.319500000000       0.161335689218      -0.071957477469       0.142201642223
