40
Config_type=bulk_kappa_phase Weight=1.0 Lattice="8.907756769 0.000000000 0.000000000 0.000000000 5.187266396 0.000000000 0.000000000 0.000000000 9.531561485" Energy=-340.28686380 Virial="-15.35527 -0.00211 0.00213 -0.00211 -16.72749 0.00969 0.00213 0.00969 -14.65298" pbc="T T T" Properties=species:S:1:pos:R:3:forces:R:3
Ga	      1.39235      1.60770      8.47101        -0.000004      0.013924     -0.000619
Ga	      3.17191      4.20133      8.47101        -0.000964      0.012428     -0.001009
Ga	      5.87278      0.90991      7.61550         0.001413     -0.018452     -0.013446
Ga	      7.59922      3.50354      7.61550        -0.001474     -0.018242     -0.013829
Ga	      4.80218      3.51534      5.68309         0.006036     -0.005872     -0.005498
Ga	      1.49601      3.56194      5.80915        -0.001622      0.016666      0.000766
Ga	      3.06824      0.96830      5.80915         0.001283      0.016512      0.000656
Ga	      8.66983      0.92171      5.68309        -0.004282     -0.006238     -0.005174
Ga	      1.41879      1.68332      2.84976         0.002924      0.018229     -0.013031
Ga	      3.14547      4.27695      2.84977        -0.002130      0.018124     -0.012812
Ga	      5.84545      0.98662      3.70518         0.000030     -0.013436     -0.000964
Ga	      7.62656      3.58025      3.70518        -0.000989     -0.012406     -0.000896
Ga	      4.21689      1.67229      0.91784        -0.007804      0.008418     -0.007554
Ga	      5.94973      4.21898      1.04298        -0.000320     -0.016506     -0.000075
Ga	      7.52228      1.62535      1.04298         0.000147     -0.015573      0.000095
Ga	      0.34736      4.26592      0.91784         0.006488      0.007746     -0.005988
O	      7.43713      1.80053      4.48337         0.010489     -0.007928     -0.006330
O	      0.04700      0.78919      0.06306         0.008250     -0.000969      0.010058
O	      7.46329      0.08267      7.04282        -0.002787     -0.009436      0.010781
O	      7.38396      5.02468      2.14697         0.009643     -0.015595     -0.001037
O	      6.03487      4.39416      4.48337        -0.010031     -0.007809     -0.006050
O	      7.55607      3.38816      9.51089        -0.004165     -0.012909     -0.002089
O	      6.00871      2.67631      7.04283         0.003155     -0.009429      0.010797
O	      6.08806      2.43105      2.14697        -0.009552     -0.016355     -0.001067
O	      1.46165      1.79882      4.74534         0.004647      0.012808     -0.002398
O	      2.98388      0.79381      9.24949         0.011170      0.006836     -0.005589
O	      1.63556      0.16173      6.91384        -0.010990      0.014626     -0.002490
O	      1.55493      5.10416      2.27726         0.002711      0.011256      0.011631
O	      0.06377      4.39867      4.82889        -0.007804     -0.000874      0.010282
O	      1.58037      3.38744      9.24949        -0.011593      0.005941     -0.005370
O	      0.14658      2.46668      6.99313         0.000123     -0.006469      0.008571
O	      8.87118      2.72019      2.22772        -0.000671      0.006468      0.008069
O	      4.50048      1.80503      4.82889         0.007684     -0.000693      0.009919
O	      5.91594      0.79453      9.51089         0.004723     -0.012797     -0.001572
O	      4.41767      5.06031      6.99312        -0.000315     -0.006339      0.008194
O	      4.60083      0.12656      2.22772         0.000661      0.005982      0.008241
O	      3.10261      4.39245      4.74534        -0.004361      0.013542     -0.002614
O	      4.51726      3.38282      0.06306        -0.008557     -0.000152      0.010526
O	      2.92868      2.75536      6.91384         0.011234      0.014098     -0.002659
O	      3.00933      2.51053      2.27726        -0.002392      0.010874      0.011576
