ITEM: TIMESTEP
0
ITEM: NUMBER OF ATOMS
30
ITEM: BOX BOUNDS xy xz yz pp pp pp
-2.5419852320000000e+00 5.0839704650000002e+00 -2.5419852320000000e+00
0.0000000000000000e+00 4.4028479940000000e+00 0.0000000000000000e+00
0.0000000000000000e+00 1.3686412447000000e+01 0.0000000000000000e+00
ITEM: ATOMS id type x y z fx fy fz
1 2       0.000000000000       0.000000000000       1.972130000000       0.000012090796       0.000003945722      -0.025514301354
2 2      -0.000000000000       2.935230000000       0.308940000000       0.000016631589       0.000027153224       0.025458086954
3 2       2.541990000000       1.467620000000       2.590000000000      -0.000074381057      -0.000073046977       0.025501923859
4 2      -0.000000000000       2.935230000000       4.253200000000       0.000017738889       0.000042827537      -0.025504330963
5 2       2.541990000000       1.467620000000       6.534260000000      -0.000094512751      -0.000078216484      -0.025378279864
6 2       0.000000000000       0.000000000000       4.871080000000      -0.000033814246      -0.000013844722       0.025480224126
7 2      -0.000000000000       2.935230000000       7.152150000000       0.000047987977       0.000038556284       0.025489166442
8 2       0.000000000000       0.000000000000       8.815340000000       0.000055898248       0.000004668494      -0.025544363792
9 2      -0.000000000000       2.935230000000      11.096410000000       0.000021720068       0.000039607847      -0.025502106498
10 2       2.541990000000       1.467620000000       9.433210000000      -0.000059686546      -0.000059353174       0.025469154273
11 2       0.000000000000       0.000000000000      11.714280000000       0.000016228012      -0.000016547174       0.025522766016
12 2       2.541990000000       1.467620000000      13.377470000000      -0.000072557855      -0.000083562506      -0.025479976394
13 1      -0.770340465000       1.334270000000       3.421600000000       0.025033793126      -0.043364266909       0.000056305301
14 1       1.540680000000       0.000000000000       3.421600000000      -0.050021064354       0.000010549413       0.000028090657
15 1       1.771650000000       3.068580000000       3.421600000000       0.024947552848       0.043353244500       0.000066784994
16 1       3.312320000000       0.133340000000       1.140530000000      -0.024944982335       0.043445295219       0.000086600530
17 1       3.312330000000       2.801880000000       1.140530000000      -0.025116029406      -0.043312882623       0.000059515828
18 1       1.001300000000       1.467620000000       1.140530000000       0.050118140683      -0.000085058705       0.000071295404
19 1       1.771650000000       2.801880000000       7.983740000000       0.025004234666      -0.043312834523       0.000041970548
20 1       4.082670000000       1.467620000000       7.983740000000      -0.050085344061      -0.000107113038       0.000052547319
21 1       1.771650000000       0.133340000000       7.983740000000       0.024967992667       0.043459920291       0.000078066901
22 1       0.770340000000       1.600960000000       5.702680000000      -0.025084882337       0.043381971342      -0.000104865883
23 1       0.770330000000       4.269500000000       5.702680000000      -0.024870978659      -0.043393064740      -0.000151429524
24 1      -1.540690000000       2.935230000000       5.702680000000       0.050155338470       0.000057178832      -0.000134564695
25 1      -0.770340000000       4.269500000000      12.545880000000       0.025016681756      -0.043362110202      -0.000035005295
26 1       1.540680000000       2.935230000000      12.545880000000      -0.050042509978       0.000041193578      -0.000058924356
27 1      -0.770340000000       1.600960000000      12.545880000000       0.025053483086       0.043377673724      -0.000047525051
28 1      -1.771640465000       3.068580000000      10.264810000000      -0.025071048984       0.043344963997       0.000012083148
29 1       0.770340000000       1.334270000000      10.264810000000      -0.024986835177      -0.043361570908      -0.000016102087
30 1       3.543290000000       0.000000000000      10.264810000000       0.050073114863      -0.000005277320      -0.000002806544
