ITEM: TIMESTEP
0
ITEM: NUMBER OF ATOMS
30
ITEM: BOX BOUNDS xy xz yz pp pp pp
-2.5419852320000000e+00 5.0839704650000002e+00 -2.5419852320000000e+00
0.0000000000000000e+00 4.4028479940000000e+00 0.0000000000000000e+00
0.0000000000000000e+00 1.3686412447000000e+01 0.0000000000000000e+00
ITEM: ATOMS id type c_pe_atom
1 2      -4.739835365012
2 2      -4.739732881999
3 2      -4.739885416108
4 2      -4.739975273113
5 2      -4.739730588929
6 2      -4.739923712876
7 2      -4.739753582429
8 2      -4.739836755982
9 2      -4.739833612676
10 2      -4.739856157050
11 2      -4.739834079038
12 2      -4.739781036288
13 1      -6.739457261154
14 1      -6.739610871778
15 1      -6.739532767124
16 1      -6.739622488285
17 1      -6.739637598916
18 1      -6.739594156463
19 1      -6.739706904232
20 1      -6.739630250396
21 1      -6.739664182237
22 1      -6.739561746498
23 1      -6.739595679252
24 1      -6.739514487168
25 1      -6.739701348285
26 1      -6.739654759068
27 1      -6.739608045874
28 1      -6.739541353239
29 1      -6.739616682749
30 1      -6.739600762636
