ITEM: TIMESTEP
0
ITEM: NUMBER OF ATOMS
30
ITEM: BOX BOUNDS xy xz yz pp pp pp
-2.5723675159999999e+00 5.1447350519999997e+00 -2.5723675159999999e+00
0.0000000000000000e+00 4.4554716750000001e+00 0.0000000000000000e+00
0.0000000000000000e+00 1.3849995066000000e+01 0.0000000000000000e+00
ITEM: ATOMS id type c_pe_atom
1 2      -5.977170940489
2 2      -5.976974866271
3 2      -5.977166428972
4 2      -5.977145998894
5 2      -5.976955058663
6 2      -5.977163133386
7 2      -5.976950829894
8 2      -5.977132001657
9 2      -5.977030994499
10 2      -5.977151687544
11 2      -5.977062971208
12 2      -5.976984139349
13 1      -5.892523838498
14 1      -5.892578348617
15 1      -5.892564592759
16 1      -5.892659247952
17 1      -5.892625561105
18 1      -5.892591351418
19 1      -5.892682491761
20 1      -5.892619849535
21 1      -5.892676736021
22 1      -5.892707001955
23 1      -5.892681639033
24 1      -5.892647651721
25 1      -5.892744866081
26 1      -5.892756265420
27 1      -5.892698403642
28 1      -5.892577922681
29 1      -5.892590516789
30 1      -5.892642603552
