ITEM: TIMESTEP
0
ITEM: NUMBER OF ATOMS
30
ITEM: BOX BOUNDS xy xz yz pp pp pp
-2.5723675159999999e+00 5.1447350519999997e+00 -2.5723675159999999e+00
0.0000000000000000e+00 4.4554716750000001e+00 0.0000000000000000e+00
0.0000000000000000e+00 1.3849995066000000e+01 0.0000000000000000e+00
ITEM: ATOMS id type v_vir_xx v_vir_yy v_vir_zz v_vir_xy v_vir_xz v_vir_yz
1 2      -2.487403730317      -2.487486798189      -0.859292118158       0.000006986663       0.000001080722      -0.000002854582
2 2      -2.487557417850      -2.487514046692      -0.859483030078      -0.000011925819       0.000009597325       0.000014299621
3 2      -2.487411265498      -2.487406757306      -0.859334391860      -0.000000180366      -0.000005050170       0.000000227297
4 2      -2.487442960009      -2.487445768871      -0.859340350761      -0.000009045671       0.000001170276      -0.000021948798
5 2      -2.487531369606      -2.487492970413      -0.859534883142       0.000015677438       0.000021419505       0.000022802982
6 2      -2.487383997774      -2.487462426421      -0.859272977624       0.000025927455      -0.000004540944      -0.000017932010
7 2      -2.487537439506      -2.487505940200      -0.859554331566       0.000004178790       0.000022593467       0.000021875639
8 2      -2.487430697340      -2.487497753313      -0.859319518469       0.000022171394      -0.000024209496       0.000001836146
9 2      -2.487538105102      -2.487503459393      -0.859439453376       0.000006012326      -0.000006223100      -0.000011456136
10 2      -2.487453658823      -2.487438501201      -0.859336741350       0.000005753213      -0.000010355779      -0.000001077692
11 2      -2.487433794416      -2.487488545369      -0.859398055602       0.000000490790      -0.000005469338      -0.000021408809
12 2      -2.487572127495      -2.487476596654      -0.859522424256      -0.000015649220       0.000014410731       0.000015336408
13 1       2.252684565260       3.047392531458       1.516344877573      -0.688269905644       0.763825788825       0.440977185307
14 1       3.444756822563       1.855369216880       1.516349918640       0.000023482687      -0.000000777079      -0.882001160967
15 1       2.252663377888       3.047422038599       1.516345738424       0.688242292795      -0.763830953658       0.441003902492
16 1       2.252716125830       3.047402990400       1.516305436394      -0.688242193339       0.763823017745       0.440986383336
17 1       2.252642877720       3.047445973195       1.516335372227       0.688233567846      -0.763805745195       0.441000506545
18 1       3.444777700965       1.855326259824       1.516318988125       0.000062599003      -0.000019035825      -0.881971905277
19 1       2.252650458098       3.047441182026       1.516339709733      -0.688245684034       0.763815850359       0.441002587496
20 1       3.444742252250       1.855310427008       1.516322287806      -0.000064495267       0.000029612275      -0.881962589231
21 1       2.252722787201       3.047405163927       1.516332571574       0.688252135323      -0.763839682549       0.440975037045
22 1       2.252643597790       3.047427972964       1.516328264986      -0.688240089597       0.763819010053       0.440997615188
23 1       2.252703276434       3.047395329407       1.516320825175       0.688258510315      -0.763840146098       0.440978746017
24 1       3.444739915678       1.855317884579       1.516320048218      -0.000067569040       0.000032596149      -0.881968774999
25 1       2.252731634243       3.047419709664       1.516341497502      -0.688263819346       0.763834497006       0.440994448447
26 1       3.444794263841       1.855312930630       1.516346226457       0.000044954462      -0.000016125499      -0.881995641301
27 1       2.252648366760       3.047390197012       1.516335870685       0.688220514053      -0.763802271372       0.441005594188
28 1       2.252660332683       3.047428128629       1.516341132288      -0.688241775306       0.763811992375       0.441007645198
29 1       2.252740313118       3.047375960444       1.516336846625       0.688273312454      -0.763831620696       0.440959834911
30 1       3.444780755618       1.855355659663       1.516335769691      -0.000027527149       0.000005740560      -0.881993146437
