ITEM: TIMESTEP
0
ITEM: NUMBER OF ATOMS
30
ITEM: BOX BOUNDS xy xz yz pp pp pp
-2.5723675159999999e+00 5.1447350519999997e+00 -2.5723675159999999e+00
0.0000000000000000e+00 4.4554716750000001e+00 0.0000000000000000e+00
0.0000000000000000e+00 1.3849995066000000e+01 0.0000000000000000e+00
ITEM: ATOMS id type x y z fx fy fz
1 2       0.000000000000       0.000000000000       1.996330000000       0.000004722809       0.000010594121      -0.075034479583
2 2       0.000000006667       2.970310000000       0.312010000000       0.000007388432       0.000066049118       0.074917738244
3 2       2.572370003333       1.485160000000       2.620330000000      -0.000026687703      -0.000024964881       0.075050629594
4 2       0.000000006667       2.970310000000       4.304670000000       0.000001703154       0.000068899272      -0.074999400620
5 2       2.572370003333       1.485160000000       6.612990000000      -0.000038599341      -0.000064812552      -0.074974396294
6 2       0.000000000000       0.000000000000       4.928670000000      -0.000013098446      -0.000021906106       0.075052204999
7 2       0.000000006667       2.970310000000       7.237010000000       0.000037103948       0.000067729040       0.074967694689
8 2       0.000000000000       0.000000000000       8.921330000000       0.000036637891       0.000007763731      -0.075049245110
9 2       0.000000006667       2.970310000000      11.229660000000       0.000010358469       0.000075619644      -0.074949592712
10 2       2.572370003333       1.485160000000       9.545330000000      -0.000024590983      -0.000027740675       0.075038542264
11 2       0.000000000000       0.000000000000      11.853670000000      -0.000002554401      -0.000019775065       0.075036646620
12 2       2.572370003333       1.485160000000      13.537990000000      -0.000054819344      -0.000060067236      -0.075049613101
13 1      -0.779439996970       1.350040000000       3.462500000000       0.034408842730      -0.059697977971      -0.000027721296
14 1       1.558890000000       0.000000000000       3.462500000000      -0.068918014748       0.000002397381      -0.000006142490
15 1       1.792920006970       3.105440000000       3.462500000000       0.034501955560       0.059629683808      -0.000021916424
16 1       3.351810000303       0.135120000000       1.154160000000      -0.034415339714       0.059703011222       0.000094577071
17 1       3.351810006363       2.835190000000       1.154160000000      -0.034485332792      -0.059628671388       0.000093966522
18 1       1.013480003333       1.485160000000       1.154160000000       0.068911154373      -0.000079875423       0.000102608112
19 1       1.792930006363       2.835190000000       8.079160000000       0.034445559557      -0.059638638638       0.000089009353
20 1       4.131260003333       1.485160000000       8.079160000000      -0.068937593237      -0.000080602072       0.000109804854
21 1       1.792930000303       0.135120000000       8.079160000000       0.034385817271       0.059707324984       0.000106497760
22 1       0.779440003637       1.620280000000       5.770840000000      -0.034441459393       0.059646753584      -0.000083123774
23 1       0.779440009697       4.320350000000       5.770840000000      -0.034397617107      -0.059696221515      -0.000092948508
24 1      -1.558889993333       2.970310000000       5.770840000000       0.068925969433       0.000092404102      -0.000119547307
25 1      -0.779439990303       4.320350000000      12.695830000000       0.034393536283      -0.059669187587      -0.000014644406
26 1       1.558880006667       2.970310000000      12.695830000000      -0.068840218647       0.000044125927      -0.000028769529
27 1      -0.779449996363       1.620280000000      12.695830000000       0.034514391884       0.059654017054      -0.000029260961
28 1      -1.792919993030       3.105440000000      10.387500000000      -0.034500409052       0.059633871983      -0.000052746969
29 1       0.779440003030       1.350040000000      10.387500000000      -0.034375970018      -0.059711454429      -0.000069269687
30 1       3.585850000000       0.000000000000      10.387500000000       0.068887163131       0.000011650567      -0.000057101311
