80
Config_type=bulk_delta_phase Weight=1.0 Lattice="9.486232111 0.000000000 0.000000000 0.000000000 9.486232111 0.000000000 0.000000000 0.000000000 9.486232111" Energy=-680.00333060 Virial="-22.11851 0.00005 -0.00003 0.00005 -22.11844 0.00006 -0.00003 0.00006 -22.11838" pbc="T T T" Properties=species:S:1:pos:R:3:forces:R:3
Ga	      7.11467      2.37156      2.37156         0.000088     -0.000054     -0.000023
Ga	      7.11467      4.40124      4.74312         0.000066     -0.013272     -0.000085
Ga	      0.00000      7.11467      0.34187         0.000072      0.000101      0.013304
Ga	      0.00000      2.37156      4.40124         0.000045     -0.000029     -0.013274
Ga	      0.34187      0.00000      7.11467         0.013304      0.000070      0.000101
Ga	      0.34187      4.74312      2.37156         0.013310     -0.000102      0.000002
Ga	      2.37156      4.40124      0.00000        -0.000032     -0.013276      0.000049
Ga	      2.37156      7.11467      2.37156        -0.000035      0.000081     -0.000055
Ga	      2.37156      2.37156      2.37156        -0.000016     -0.000013     -0.000016
Ga	      2.37156      2.37156      7.11467        -0.000059     -0.000034      0.000086
Ga	      2.37156      0.34187      4.74312         0.000000      0.013307     -0.000098
Ga	      4.40124      0.00000      2.37156        -0.013277      0.000051     -0.000028
Ga	      4.40124      4.74312      7.11467        -0.013268     -0.000082      0.000064
Ga	      4.74312      2.37156      0.34187        -0.000107      0.000005      0.013314
Ga	      4.74312      7.11467      4.40124        -0.000086      0.000068     -0.013260
Ga	      7.11467      0.34187      0.00000         0.000107      0.013310      0.000075
Ga	      2.37156      7.11467      7.11467        -0.000005      0.000107      0.000115
Ga	      2.37156      9.14436      0.00000        -0.000027     -0.013210      0.000025
Ga	      4.74312      2.37156      5.08499        -0.000114     -0.000052      0.013173
Ga	      4.74312      7.11467      9.14436        -0.000139      0.000119     -0.013201
Ga	      5.08499      4.74312      2.37156         0.013177     -0.000121     -0.000055
Ga	      5.08499      0.00000      7.11467         0.013163      0.000014      0.000085
Ga	      7.11467      9.14436      4.74312         0.000126     -0.013197     -0.000141
Ga	      7.11467      2.37156      7.11467         0.000120     -0.000000      0.000102
Ga	      7.11467      7.11467      7.11467         0.000058      0.000062      0.000054
Ga	      7.11467      7.11467      2.37156         0.000109      0.000115     -0.000008
Ga	      7.11467      5.08499      0.00000         0.000091      0.013168      0.000017
Ga	      9.14436      4.74312      7.11467        -0.013198     -0.000144      0.000125
Ga	      9.14436      0.00000      2.37156        -0.013216      0.000033     -0.000019
Ga	      0.00000      7.11467      5.08499         0.000016      0.000093      0.013160
Ga	      0.00000      2.37156      9.14436         0.000035     -0.000018     -0.013208
Ga	      2.37156      5.08499      4.74312        -0.000053      0.013174     -0.000116
O	      8.40674      5.80710      1.50248         0.004591      0.003274     -0.001293
O	      8.40674      3.67913      3.24064         0.004597     -0.003196      0.001228
O	      8.42225      1.50248      1.07949        -0.003381     -0.001291     -0.004614
O	      8.42225      3.24064      5.82260        -0.003351      0.001236     -0.004509
O	      1.06399      3.24064      1.07949         0.003213      0.001211     -0.004598
O	      1.06399      1.50248      5.82260         0.003240     -0.001266     -0.004528
O	      1.07949      8.42225      1.50248        -0.004575     -0.003349     -0.001299
O	      1.07949      1.06399      3.24064        -0.004580      0.003203      0.001234
O	      1.50248      5.82260      1.06399        -0.001270     -0.004499      0.003207
O	      1.50248      3.66363      3.67913        -0.001227      0.004653     -0.003186
O	      1.50248      1.07949      8.42225        -0.001227     -0.004604     -0.003316
O	      1.50248      8.40674      5.80710        -0.001225      0.004624      0.003247
O	      3.24064      3.66363      5.80710         0.001192      0.004625      0.003231
O	      3.24064      1.07949      1.06399         0.001246     -0.004611      0.003185
O	      3.24064      8.40674      3.67913         0.001209      0.004661     -0.003196
O	      3.24064      5.82260      8.42225         0.001232     -0.004469     -0.003322
O	      3.66363      3.67913      1.50248         0.004669     -0.003239     -0.001272
O	      3.66363      5.80710      3.24064         0.004594      0.003234      0.001234
O	      3.67913      1.50248      3.66363        -0.003221     -0.001281      0.004619
O	      3.67913      3.24064      8.40674        -0.003167      0.001169      0.004667
O	      5.80710      1.50248      8.40674         0.003252     -0.001280      0.004662
O	      5.80710      3.24064      3.66363         0.003274      0.001244      0.004603
O	      5.82260      8.42225      3.24064        -0.004500     -0.003300      0.001221
O	      5.82260      1.06399      1.50248        -0.004540      0.003215     -0.001307
O	      3.66363      1.06399      6.24559         0.004616      0.003172     -0.001171
O	      3.66363      8.42225      7.98376         0.004625     -0.003313      0.001135
O	      3.67913      6.24559      5.82260        -0.003233     -0.001184     -0.004546
O	      3.67913      7.98376      1.07949        -0.003185      0.001127     -0.004656
O	      5.80710      7.98376      5.82260         0.003267      0.001156     -0.004518
O	      5.80710      6.24559      1.07949         0.003249     -0.001191     -0.004623
O	      5.82260      3.67913      6.24559        -0.004504     -0.003202     -0.001195
O	      5.82260      5.80710      7.98376        -0.004515      0.003270      0.001163
O	      6.24559      1.07949      5.80710        -0.001175     -0.004631      0.003249
O	      6.24559      8.40674      8.42225        -0.001182      0.004639     -0.003283
O	      6.24559      5.82260      3.67913        -0.001164     -0.004562     -0.003198
O	      6.24559      3.66363      1.06399        -0.001202      0.004616      0.003173
O	      7.98376      8.40674      1.06399         0.001091      0.004654      0.003141
O	      7.98376      5.82260      5.80710         0.001099     -0.004553      0.003242
O	      7.98376      3.66363      8.42225         0.001098      0.004636     -0.003304
O	      7.98376      1.07949      3.67913         0.001083     -0.004649     -0.003173
O	      8.40674      8.42225      6.24559         0.004561     -0.003302     -0.001195
O	      8.40674      1.06399      7.98376         0.004584      0.003179      0.001151
O	      8.42225      6.24559      8.40674        -0.003313     -0.001184      0.004631
O	      8.42225      7.98376      3.66363        -0.003353      0.001139      0.004614
O	      1.06399      6.24559      3.66363         0.003233     -0.001199      0.004625
O	      1.06399      7.98376      8.40674         0.003201      0.001110      0.004665
O	      1.07949      3.67913      7.98376        -0.004624     -0.003198      0.001099
O	      1.07949      5.80710      6.24559        -0.004562      0.003234     -0.001190
