ITEM: TIMESTEP
0
ITEM: NUMBER OF ATOMS
160
ITEM: BOX BOUNDS pp pp pp
0.0000000000000000e+00 8.4793230770000001e+00
0.0000000000000000e+00 8.4793230770000001e+00
0.0000000000000000e+00 2.5437969232000000e+01
ITEM: ATOMS id type c_pe_atom
1 2     -10.935014376521
2 2     -10.034440051206
3 2     -10.131724146833
4 2     -11.026673926851
5 2     -11.086766116951
6 2     -10.965565511882
7 2     -10.109505503155
8 2     -10.216663497854
9 2     -10.004506302070
10 2     -10.103416631578
11 2     -10.103849975007
12 2     -11.163939657152
13 2     -10.976285206203
14 2     -11.062636700670
15 2     -10.092423343749
16 2     -10.406041123342
17 2     -10.076662969384
18 2     -10.899873301016
19 2     -10.097991285014
20 2     -10.331699657186
21 2      -6.613468562310
22 2      -6.028722729620
23 2      -6.402755009174
24 2      -5.300682326338
25 2      -6.007088245688
26 2      -6.957273526744
27 2      -7.036354653716
28 2      -5.171051728522
29 2      -7.260060554696
30 2      -6.132306298338
31 2      -5.962623763494
32 2      -6.181141434483
33 2      -5.533929723357
34 2      -5.589558867195
35 2      -6.048895603645
36 2      -5.482284289310
37 2      -6.707922394202
38 2      -5.606713957236
39 2      -7.048667243979
40 2      -7.014213093519
41 2      -6.412454242871
42 2      -6.721348744291
43 2      -6.015145280627
44 2      -5.760708807224
45 2      -5.556993957315
46 2      -5.522706449764
47 2      -5.643065774141
48 2      -6.655542346254
49 2      -5.675004633381
50 2      -6.758488374415
51 2      -6.901456966582
52 2      -5.868195316621
53 2      -5.477559634913
54 2      -5.944392775243
55 2      -6.035029998396
56 2      -6.334565546097
57 2      -6.028268950710
58 2      -6.030305698589
59 2      -6.052890238367
60 2      -7.026507671098
61 2     -10.623662145110
62 2     -10.524878796244
63 2     -10.347820286591
64 2     -10.546768214231
65 1      -6.207370267753
66 1      -6.452668862767
67 1      -3.102772914453
68 1      -2.618332246394
69 1      -2.515068815040
70 1      -2.767066399140
71 1      -6.259010438930
72 1      -2.678555339682
73 1      -6.380061310909
74 1      -2.629463063395
75 1      -2.544273039173
76 1      -6.875194203456
77 1      -3.374012580556
78 1      -3.165964304125
79 1      -2.628338968769
80 1      -7.251704493694
81 1      -6.340413482571
82 1      -6.197493238200
83 1      -6.487941555102
84 1      -6.609942218593
85 1      -3.061967304131
86 1      -2.711276759047
87 1      -6.169344199509
88 1      -6.597712229397
89 1      -6.665335042373
90 1      -6.282210196889
91 1      -2.672690814024
92 1      -5.931225271979
93 1      -3.191165690103
94 1      -2.616021572956
95 1      -7.342868890925
96 1      -2.664288921541
97 1      -2.692179987969
98 1      -6.968125062113
99 1      -6.880068199238
100 1      -3.053676080846
101 1      -5.994384294360
102 1      -2.973891261259
103 1      -3.407048112121
104 1      -6.374082183936
105 1      -2.720156542878
106 1      -6.215537847052
107 1      -2.731116689686
108 1      -2.954416536803
109 1      -6.608996273936
110 1      -6.194557062963
111 1      -2.732480029954
112 1      -2.608434142744
113 1      -3.235408864762
114 1      -2.507976506816
115 1      -6.250911372631
116 1      -6.316983563252
117 1      -6.575999899300
118 1      -6.225154398887
119 1      -3.167863969436
120 1      -3.496479136700
121 1      -6.539585469987
122 1      -6.749066959264
123 1      -2.835180788733
124 1      -2.383871168628
125 1      -6.788080938657
126 1      -2.883694275606
127 1      -6.566147809666
128 1      -6.582032702072
129 1      -3.312107735079
130 1      -6.229182238412
131 1      -3.285435386806
132 1      -6.272190340271
133 1      -6.456735371332
134 1      -7.341721083487
135 1      -5.983299262376
136 1      -3.444897573811
137 1      -2.750107041067
138 1      -5.999294622881
139 1      -6.355875540085
140 1      -2.688035384465
141 1      -2.764727089277
142 1      -6.466891493343
143 1      -2.657439864930
144 1      -6.229012595551
145 1      -2.304827500446
146 1      -3.381770361741
147 1      -6.275207910366
148 1      -2.694188766622
149 1      -2.758824298063
150 1      -6.519182583541
151 1      -6.254271249135
152 1      -6.917709864985
153 1      -6.163028403481
154 1      -3.198876286716
155 1      -2.397718275622
156 1      -6.061119130507
157 1      -6.172218920218
158 1      -3.326630961940
159 1      -2.880216860862
160 1      -2.980885072479
