ITEM: TIMESTEP
0
ITEM: NUMBER OF ATOMS
20
ITEM: BOX BOUNDS xy xz yz pp pp pp
-1.4152871881489999e+00 1.2684735161049000e+01 0.0000000000000000e+00
0.0000000000000000e+00 3.1412639100000002e+00 -1.4152871881489999e+00
0.0000000000000000e+00 5.8154745014930000e+00 0.0000000000000000e+00
ITEM: ATOMS id type x y z fx fy fz
1 2       1.555935395686       1.570630000000       1.829414320637       0.037194101023       0.000013541972       0.008231679230
2 2       3.371145824871       0.000000000000       3.986057974623      -0.037194308172      -0.000013541985      -0.008228367849
3 2       0.006829727731       0.000000000000       4.624062161619      -0.028817154384      -0.000028448370      -0.020621599518
4 2       4.920251492826       1.570630000000       1.191410133641       0.028816888159       0.000028448287       0.020622926307
5 2       7.898302959743       0.000000000000       1.829415585103       0.037194308170      -0.000013541985       0.008228367850
6 2       9.713513388927       1.570630000000       3.986059239089      -0.037194101016       0.000013541972      -0.008231679233
7 2       6.349197291787       1.570630000000       4.624063426085      -0.028816888150       0.000028448287      -0.020622926310
8 2      11.262619056883       0.000000000000       1.191411398106       0.028817154373      -0.000028448370       0.020621599530
9 1       5.911624643894       0.000000000000       1.499203061666      -0.008970652289      -0.000034398839      -0.031457802667
10 1      -0.984543423337       1.570630000000       4.316269233593       0.008970238135       0.000034398937       0.031466368816
11 1       1.412799594382       0.000000000000       3.300744395938      -0.029129867870      -0.000007457669       0.026535607184
12 1       3.514281626175       1.570630000000       2.514727899322       0.029131487187       0.000007457775      -0.026533885238
13 1       3.063196510166       1.570630000000       5.173875249154       0.022318356460       0.000014766178       0.024257146174
14 1       1.863884710391       0.000000000000       0.641597046106      -0.022319664554      -0.000014766286      -0.024256594097
15 1      12.253992207950       1.570630000000       1.499204326132      -0.008970238121       0.000034398937      -0.031466368811
16 1       5.357824140720       0.000000000000       4.316270498059       0.008970652284      -0.000034398839       0.031457802668
17 1       7.755167158439       1.570630000000       3.300745660404      -0.029131487193       0.000007457775       0.026533885243
18 1       9.856649190232       0.000000000000       2.514729163788       0.029129867867      -0.000007457669      -0.026535607191
19 1       9.405564074223       0.000000000000       5.173876513620       0.022319664549      -0.000014766286       0.024256594089
20 1       8.206252274447       1.570630000000       0.641598310572      -0.022318356457       0.000014766178      -0.024257146177
