ITEM: TIMESTEP
0
ITEM: NUMBER OF ATOMS
20
ITEM: BOX BOUNDS xy xz yz pp pp pp
-1.4152871881489999e+00 1.2684735161049000e+01 0.0000000000000000e+00
0.0000000000000000e+00 3.1412639100000002e+00 -1.4152871881489999e+00
0.0000000000000000e+00 5.8154745014930000e+00 0.0000000000000000e+00
ITEM: ATOMS id type c_pe_atom
1 2      -7.258367168967
2 2      -7.258368903115
3 2     -10.184402756736
4 2     -10.184406624394
5 2      -7.258368903114
6 2      -7.258367168961
7 2     -10.184406624396
8 2     -10.184402756734
9 1      -3.089773619745
10 1      -3.089775197402
11 1      -6.194611121775
12 1      -6.194605392783
13 1      -3.047542509740
14 1      -3.047541010108
15 1      -3.089775197399
16 1      -3.089773619736
17 1      -6.194605392784
18 1      -6.194611121790
19 1      -3.047541010107
20 1      -3.047542509739
