ITEM: TIMESTEP
0
ITEM: NUMBER OF ATOMS
30
ITEM: BOX BOUNDS xy xz yz pp pp pp
-2.4964117920000000e+00 4.9928235839999999e+00 -2.4964117920000000e+00
0.0000000000000000e+00 4.3239124720000000e+00 0.0000000000000000e+00
0.0000000000000000e+00 1.3441038518999999e+01 0.0000000000000000e+00
ITEM: ATOMS id type x y z fx fy fz
1 2       0.000000000000       0.000000000000       1.937380000000      -0.000017678950      -0.000016842401      -0.055039245911
2 2      -0.000000000000       2.882610000000       0.302800000000      -0.000001172668      -0.000078323129       0.054996985027
3 2       2.496410000000       1.441300000000       2.542960000000       0.000005201226       0.000102532039       0.055019267685
4 2      -0.000000000000       2.882610000000       4.177560000000      -0.000026102985      -0.000063452061      -0.055028619436
5 2       2.496410000000       1.441300000000       6.417720000000       0.000051003547       0.000074846636      -0.054969383048
6 2       0.000000000000       0.000000000000       4.783140000000      -0.000001449280       0.000033511919       0.055047908332
7 2      -0.000000000000       2.882610000000       7.023320000000      -0.000015680689      -0.000083172432       0.054960252780
8 2       0.000000000000       0.000000000000       8.657900000000       0.000041533451      -0.000031223821      -0.055055204816
9 2      -0.000000000000       2.882610000000      10.898080000000       0.000028309461      -0.000042524867      -0.055043114858
10 2       2.496410000000       1.441300000000       9.263480000000       0.000062104543       0.000086499954       0.055033438482
11 2       0.000000000000       0.000000000000      11.503660000000      -0.000033731836       0.000014697747       0.055067825740
12 2       2.496410000000       1.441300000000      13.138240000000       0.000005949668       0.000097750353      -0.054994839863
13 1       4.236390000000       1.310170000000       3.360260000000      -0.046126322080       0.080102751736       0.000032044682
14 1       1.512860000000       0.000000000000       3.360260000000       0.092350201282      -0.000020115997       0.000028920831
15 1       1.739980000000       3.013740000000       3.360260000000      -0.046158427810      -0.080084835824      -0.000035411617
16 1       3.252840000000       0.131130000000       1.120080000000       0.046289023228      -0.079967051068       0.000113075389
17 1       3.252840000000       2.751480000000       1.120080000000       0.046155060201       0.080001826138       0.000107160339
18 1       0.983560000000       1.441300000000       1.120080000000      -0.092481319068       0.000002318847       0.000091669719
19 1       1.739980000000       2.751480000000       7.840600000000      -0.046071156271       0.079991355342       0.000132864861
20 1       4.009270000000       1.441300000000       7.840600000000       0.092395363168       0.000023717381       0.000069168267
21 1       1.739990000000       0.131130000000       7.840600000000      -0.046377816027      -0.079953344310       0.000144184954
22 1       0.756430000000       1.572440000000       5.600440000000       0.046091482107      -0.080132238394      -0.000139643971
23 1       0.756430000000       4.192780000000       5.600440000000       0.046232212958       0.080013665117      -0.000109889464
24 1      -1.512860000000       2.882610000000       5.600440000000      -0.092367867550       0.000025648345      -0.000081298094
25 1      -0.756430000000       4.192780000000      12.320960000000      -0.046274492742       0.080018292249      -0.000126061091
26 1       1.512850000000       2.882610000000      12.320960000000       0.092496112429       0.000030947510      -0.000100541883
27 1      -0.756430000000       1.572440000000      12.320960000000      -0.046147994823      -0.080134612285      -0.000115722120
28 1      -1.739980000000       3.013740000000      10.080780000000       0.046160019775      -0.080095917417      -0.000042130755
29 1       0.756430000000       1.310170000000      10.080780000000       0.046198267364       0.080092932444       0.000016155590
30 1       3.479970000000       0.000000000000      10.080780000000      -0.092460631630      -0.000009639751       0.000020184249
