ITEM: TIMESTEP
0
ITEM: NUMBER OF ATOMS
80
ITEM: BOX BOUNDS pp pp pp
0.0000000000000000e+00 9.5615196680000007e+00
0.0000000000000000e+00 9.5615196680000007e+00
0.0000000000000000e+00 9.5615196680000007e+00
ITEM: ATOMS id type v_vir_xx v_vir_yy v_vir_zz v_vir_xy v_vir_xz v_vir_yz
1 2      -4.346561721152      -4.346561879291      -4.346562615003      -0.647635088985       0.647634515950       0.647634973154
2 2      -3.434444090922      -3.177792767012      -3.578390072432       0.000000081883       0.641077846944       0.000000083229
3 2      -3.578396039188      -3.434446896692      -3.177799265485       0.641076171159      -0.000000514062      -0.000000253676
4 2      -3.578394096100      -3.434445402131      -3.177793526515      -0.641076548513       0.000000523033      -0.000000213212
5 2      -3.177799265485      -3.578396039188      -3.434446896692      -0.000000514062      -0.000000253676       0.641076171159
6 2      -3.177796315413      -3.578391480409      -3.434445185801      -0.000000092202       0.000000041416      -0.641077096879
7 2      -3.434445402131      -3.177793526515      -3.578394096100      -0.000000213212      -0.641076548513       0.000000523033
8 2      -4.346562615003      -4.346561721152      -4.346561879291       0.647634515950       0.647634973154      -0.647635088985
9 2      -4.346561609017      -4.346561609017      -4.346561609017      -0.647634895278      -0.647634895278      -0.647634895278
10 2      -4.346561879291      -4.346562615003      -4.346561721152       0.647634973154      -0.647635088985       0.647634515950
11 2      -3.434445185801      -3.177796315413      -3.578391480409       0.000000041416      -0.641077096879      -0.000000092202
12 2      -3.177793526515      -3.578394096100      -3.434445402131       0.000000523033      -0.000000213212      -0.641076548513
13 2      -3.177792767012      -3.578390072432      -3.434444090922       0.000000083229       0.000000081883       0.641077846944
14 2      -3.578391480409      -3.434445185801      -3.177796315413      -0.641077096879      -0.000000092202       0.000000041416
15 2      -3.578390072432      -3.434444090922      -3.177792767012       0.641077846944       0.000000083229       0.000000081883
16 2      -3.434446896692      -3.177799265485      -3.578396039188      -0.000000253676       0.641076171159      -0.000000514062
17 2      -4.346562885275      -4.346562727132      -4.346561991424      -0.647634593824       0.647635166859       0.647634709655
18 2      -3.434447335456      -3.177798159352      -3.578396364324       0.000000171389       0.641076063446       0.000000313091
19 2      -3.578389810348      -3.434443892255      -3.177791840437       0.641077665294       0.000000117746       0.000000000412
20 2      -3.578392340666      -3.434446024260      -3.177797399848      -0.641077361873      -0.000000108772       0.000000040875
21 2      -3.177791840437      -3.578389810348      -3.434443892255       0.000000117746       0.000000000412       0.641077665294
22 2      -3.177794790496      -3.578394369111      -3.434445603126      -0.000000322060       0.000000130921      -0.641076739578
23 2      -3.434446024260      -3.177797399848      -3.578392340666       0.000000040875      -0.641077361873      -0.000000108772
24 2      -4.346561991424      -4.346562885275      -4.346562727132       0.647635166859       0.647634709655      -0.647634593824
25 2      -4.346562997414      -4.346562997414      -4.346562997415      -0.647634787532      -0.647634787532      -0.647634787532
26 2      -4.346562727132      -4.346561991424      -4.346562885275       0.647634709655      -0.647634593824       0.647635166859
27 2      -3.434445603126      -3.177794790496      -3.578394369111       0.000000130921      -0.641076739578      -0.000000322060
28 2      -3.177797399848      -3.578392340666      -3.434446024260      -0.000000108772       0.000000040875      -0.641077361873
29 2      -3.177798159352      -3.578396364324      -3.434447335456       0.000000313091       0.000000171389       0.641076063446
30 2      -3.578394369111      -3.434445603126      -3.177794790496      -0.641076739578      -0.000000322060       0.000000130921
31 2      -3.578396364324      -3.434447335456      -3.177798159352       0.641076063446       0.000000313091       0.000000171389
32 2      -3.434443892255      -3.177791840437      -3.578389810348       0.000000000412       0.641077665294       0.000000117746
33 1       3.487671592396       3.339673543438       2.973791830864      -0.304574263591       0.644609909370       0.352933723233
34 1       3.487671644571       3.339673162641       2.973792500450       0.304574229219      -0.644609468598       0.352933612372
35 1       3.339672254575       2.973791974126       3.487672340451      -0.352933887289      -0.304574222265      -0.644609511082
36 1       3.339672304503       2.973792930193       3.487673051161       0.352933487857      -0.304573960996       0.644609643687
37 1       3.339672372108       2.973792466031       3.487672145103      -0.352933594555       0.304574404399       0.644609172156
38 1       3.339672141941       2.973791940073       3.487672566048       0.352933170163       0.304574517763      -0.644610181550
39 1       3.487672340451       3.339672254575       2.973791974126      -0.304574222265      -0.644609511082      -0.352933887289
40 1       3.487672145103       3.339672372108       2.973792466031       0.304574404399       0.644609172156      -0.352933594555
41 1       2.973791940073       3.487672566048       3.339672141941      -0.644610181550       0.352933170163       0.304574517763
42 1       2.973791771874       3.487672688321       3.339672720527       0.644610374713      -0.352933304558       0.304574145927
43 1       2.973791974126       3.487672340451       3.339672254575      -0.644609511082      -0.352933887289      -0.304574222265
44 1       2.973791830864       3.487671592396       3.339673543438       0.644609909370       0.352933723233      -0.304574263591
45 1       2.973792584301       3.487672925909       3.339673381412      -0.644609938699      -0.352933440370      -0.304573805665
46 1       2.973792466031       3.487672145103       3.339672372108       0.644609172156      -0.352933594555       0.304574404399
47 1       2.973792500450       3.487671644571       3.339673162641      -0.644609468598       0.352933612372       0.304574229219
48 1       2.973792930193       3.487673051161       3.339672304503       0.644609643687       0.352933487857      -0.304573960996
49 1       3.487672688321       3.339672720527       2.973791771874       0.304574145927       0.644610374713      -0.352933304558
50 1       3.487672925909       3.339673381412       2.973792584301      -0.304573805665      -0.644609938699      -0.352933440370
51 1       3.339672720527       2.973791771874       3.487672688321      -0.352933304558       0.304574145927       0.644610374713
52 1       3.339673162641       2.973792500450       3.487671644571       0.352933612372       0.304574229219      -0.644609468598
53 1       3.339673543438       2.973791830864       3.487671592396       0.352933723233      -0.304574263591       0.644609909370
54 1       3.339673381412       2.973792584301       3.487672925909      -0.352933440370      -0.304573805665      -0.644609938699
55 1       3.487673051161       3.339672304503       2.973792930193      -0.304573960996       0.644609643687       0.352933487857
56 1       3.487672566048       3.339672141941       2.973791940073       0.304574517763      -0.644610181550       0.352933170163
57 1       3.487672849707       3.339672344595       2.973792659152      -0.304574387534       0.644609712272       0.352933215842
58 1       3.487673398581       3.339672401387       2.973792111739       0.304574108206      -0.644610246322       0.352933450340
59 1       3.339673010013       2.973792636506       3.487673013752      -0.352933262258      -0.304573927780      -0.644609832659
60 1       3.339673134412       2.973791624936       3.487672656572       0.352933603461      -0.304574091861       0.644609895180
61 1       3.339673565131       2.973791911411       3.487673315104      -0.352933314884       0.304573864959       0.644610468555
62 1       3.339673620982       2.973792492890       3.487672540651       0.352933797506       0.304573848796      -0.644609264043
63 1       3.487673013752       3.339673010013       2.973792636506      -0.304573927780      -0.644609832659      -0.352933262258
64 1       3.487673315104       3.339673565131       2.973791911411       0.304573864959       0.644610468555      -0.352933314884
65 1       2.973792492890       3.487672540651       3.339673620982      -0.644609264043       0.352933797506       0.304573848796
66 1       2.973792895840       3.487672001313       3.339672669178       0.644609145090      -0.352933816391       0.304574288688
67 1       2.973792636506       3.487673013752       3.339673010013      -0.644609832659      -0.352933262258      -0.304573927780
68 1       2.973792659152       3.487672849707       3.339672344595       0.644609712272       0.352933215842      -0.304574387534
69 1       2.973791850192       3.487671869707       3.339672680934      -0.644609878076      -0.352933440462      -0.304574748258
70 1       2.973791911411       3.487673315104       3.339673565131       0.644610468555      -0.352933314884       0.304573864959
71 1       2.973792111739       3.487673398581       3.339672401387      -0.644610246322       0.352933450340       0.304574108206
72 1       2.973791624936       3.487672656572       3.339673134412       0.644609895180       0.352933603461      -0.304574091861
73 1       3.487672001313       3.339672669178       2.973792895840       0.304574288688       0.644609145090      -0.352933816391
74 1       3.487671869707       3.339672680934       2.973791850192      -0.304574748258      -0.644609878076      -0.352933440462
75 1       3.339672669178       2.973792895840       3.487672001313      -0.352933816391       0.304574288688       0.644609145090
76 1       3.339672401387       2.973792111739       3.487673398581       0.352933450340       0.304574108206      -0.644610246322
77 1       3.339672344595       2.973792659152       3.487672849707       0.352933215842      -0.304574387534       0.644609712272
78 1       3.339672680934       2.973791850192       3.487671869707      -0.352933440462      -0.304574748258      -0.644609878076
79 1       3.487672656572       3.339673134412       2.973791624936      -0.304574091861       0.644609895180       0.352933603461
80 1       3.487672540651       3.339673620982       2.973792492890       0.304573848796      -0.644609264043       0.352933797506
