ITEM: TIMESTEP
0
ITEM: NUMBER OF ATOMS
40
ITEM: BOX BOUNDS pp pp pp
0.0000000000000000e+00 8.7317141449999998e+00
0.0000000000000000e+00 5.0847512500000001e+00
0.0000000000000000e+00 9.3431907049999996e+00
ITEM: ATOMS id type x y z fx fy fz
1 2       1.371850000000       1.571500000000       8.293270000000      -0.101731552181       0.163151288086      -0.032699913742
2 2       3.102200000000       4.113870000000       8.293270000000       0.101758230745       0.163221944673      -0.032711473370
3 2       5.747040000000       0.901740000000       7.462100000000       0.108509493990      -0.123547181286      -0.033423963290
4 2       7.458720000000       3.444110000000       7.462110000000      -0.108555068017      -0.123375487115      -0.033621753624
5 2       4.697750000000       3.443620000000       5.571560000000      -0.133751089783      -0.005952003430       0.023347557128
6 2       1.466260000000       3.492450000000       5.695130000000      -0.120119891539       0.039743183792      -0.254622328022
7 2       3.007780000000       0.950080000000       5.695120000000       0.120249525803       0.039646548149      -0.254591900145
8 2       8.508020000000       0.901240000000       5.571560000000       0.133629217527      -0.005919336060       0.023335781188
9 2       1.381120000000       1.640380000000       2.790550000000       0.107932586752       0.121823477879      -0.033153885289
10 2       3.092940000000       4.182760000000       2.790550000000      -0.107995392217       0.121668517529      -0.033143482267
11 2       5.737160000000       0.971330000000       3.621680000000      -0.101412381980      -0.163314518416      -0.032602576947
12 2       7.468610000000       3.513710000000       3.621680000000       0.101333992102      -0.163394117329      -0.032606696875
13 2       4.142640000000       1.641440000000       0.900180000000       0.133233404154       0.005689590248       0.022146285893
14 2       5.831860000000       4.134790000000       1.023250000000      -0.116318362002      -0.039735636566      -0.251831818456
15 2       7.373910000000       1.592420000000       1.023250000000       0.116267403154      -0.039824297615      -0.251839733284
16 2       0.331410000000       4.183820000000       0.900190000000      -0.133162279017       0.005655530249       0.022063875357
17 1       7.293550000000       1.771160000000       4.408570000000       0.037096636526      -0.060979061755      -0.072131415684
18 1       0.033010000000       0.770700000000       0.032030000000      -0.016297265304       0.063891866315       0.140626587357
19 1       7.327360000000       0.100430000000       6.904640000000       0.113221544493      -0.022293416148      -0.000817696600
20 1       7.258580000000       4.949260000000       2.125880000000       0.004801678234       0.222653813720       0.065054418018
21 1       5.912210000000       4.313530000000       4.408570000000      -0.036977574869      -0.060862809692      -0.072218886815
22 1       7.398150000000       3.327170000000       9.328460000000       0.035756284094       0.031098558743       0.086575047735
23 1       5.878400000000       2.642810000000       6.904640000000      -0.113246463303      -0.022326467608      -0.000791957341
24 1       5.947190000000       2.406880000000       2.125880000000      -0.004787908442       0.222742222478       0.065009118257
25 1       1.441480000000       1.757410000000       4.657010000000      -0.036158994682      -0.030745575265       0.086392369591
26 1       2.928140000000       0.771600000000       9.080320000000       0.038176773734       0.061306964109      -0.071761484733
27 1       1.582340000000       0.134840000000       6.798110000000      -0.010514169044      -0.220578991569       0.065293250631
28 1       1.512720000000       4.983960000000       2.233120000000      -0.115375734908       0.023701221778      -0.000717744742
29 1       0.075590000000       4.314530000000       4.703660000000       0.017651682887      -0.066846076629       0.141705273799
30 1       1.545910000000       3.313980000000       9.080320000000      -0.038251156586       0.061281134680      -0.071709457717
31 1       0.157350000000       2.423210000000       6.855230000000      -0.016922717579       0.036464224336       0.077323885368
32 1       8.682360000000       2.661240000000       2.183870000000       0.016665331275      -0.035549124915       0.075601972450
33 1       4.398460000000       1.772160000000       4.703660000000      -0.017645458147      -0.066927414947       0.141731005657
34 1       5.807610000000       0.784790000000       9.328470000000      -0.035716016834       0.031177004981       0.086258333192
35 1       4.316690000000       4.965580000000       6.855230000000       0.017014345926       0.036569711506       0.077331787194
36 1       4.523410000000       0.118860000000       2.183870000000      -0.016629790913      -0.035492836672       0.075609332376
37 1       3.032570000000       4.299790000000       4.657010000000       0.036104375284      -0.030816810031       0.086428311455
38 1       4.441040000000       3.313080000000       0.032030000000       0.016303091701       0.063774077565       0.140649302985
39 1       2.891700000000       2.677210000000       6.798120000000       0.010510356980      -0.220574899636       0.065224292390
40 1       2.961340000000       2.441580000000       2.233120000000       0.115353311984       0.023795181866      -0.000709619076
