ITEM: TIMESTEP
0
ITEM: NUMBER OF ATOMS
40
ITEM: BOX BOUNDS pp pp pp
0.0000000000000000e+00 8.9253610309999996e+00
0.0000000000000000e+00 5.1975179110000003e+00
0.0000000000000000e+00 9.5503985629999999e+00
ITEM: ATOMS id type c_pe_atom
1 2      -4.982781706973
2 2      -4.982777175733
3 2      -4.660256057662
4 2      -4.660258083323
5 2      -5.082895114278
6 2      -4.957185781985
7 2      -4.957183637023
8 2      -5.082895707243
9 2      -4.660149679728
10 2      -4.660147426683
11 2      -4.981833688845
12 2      -4.981836669663
13 2      -5.083985785926
14 2      -4.957144874672
15 2      -4.957138896502
16 2      -5.083988533080
17 1     -11.022588493878
18 1     -11.038121515576
19 1     -10.967611486386
20 1     -10.453742449860
21 1     -11.022595958163
22 1     -10.946626882313
23 1     -10.967606942521
24 1     -10.453735368947
25 1     -10.946445741169
26 1     -11.022208868801
27 1     -10.452543130980
28 1     -10.967670035156
29 1     -11.038462900534
30 1     -11.022223865328
31 1     -10.924988357062
32 1     -10.924611305558
33 1     -11.038444745445
34 1     -10.946613241837
35 1     -10.924987215726
36 1     -10.924608838034
37 1     -10.946436080189
38 1     -11.038110774559
39 1     -10.452545383900
40 1     -10.967665153894
