ITEM: TIMESTEP
0
ITEM: NUMBER OF ATOMS
80
ITEM: BOX BOUNDS pp pp pp
0.0000000000000000e+00 8.6260885710000004e+00
0.0000000000000000e+00 1.0046484325000000e+01
0.0000000000000000e+00 9.2301682360000008e+00
ITEM: ATOMS id type x y z fx fy fz
1 2       1.358450000000       1.550660000000       8.190850000000      -0.093767803006       0.191998427430      -0.076677941919
2 2       3.061480000000       4.062280000000       8.190850000000       0.093687287869       0.191879691999      -0.076609277452
3 2       5.669570000000       0.904570000000       7.366180000000       0.092405240508      -0.104654172119      -0.036427421583
4 2       7.376440000000       3.416190000000       7.366180000000      -0.092390012712      -0.104654657606      -0.036411491392
5 2       4.632210000000       3.399970000000       5.504820000000      -0.147496260733      -0.048000926662      -0.056757700821
6 2       1.450500000000       3.446070000000       5.625160000000      -0.172195732356       0.009527950082      -0.239470458592
7 2       2.969420000000       0.934440000000       5.625160000000       0.172315831961       0.009807663609      -0.239527152833
8 2       8.413810000000       0.888350000000       5.504820000000       0.147461827836      -0.048062006720      -0.056748939578
9 2       1.356500000000       1.606980000000       2.751080000000       0.092982741274       0.103774387883      -0.034930839915
10 2       3.063430000000       4.118600000000       2.751090000000      -0.092955481274       0.103807078433      -0.034953080935
11 2       5.671010000000       0.961150000000       3.575650000000      -0.092176718086      -0.192477396551      -0.075508401297
12 2       7.375010000000       3.472770000000       3.575640000000       0.092102346498      -0.192537613296      -0.075343732575
13 2       4.101100000000       1.623590000000       0.889900000000       0.146838509116       0.045924799954      -0.057077198203
14 2       5.763570000000       4.088800000000       1.009990000000      -0.173633784818      -0.010025069193      -0.241028991987
15 2       7.282450000000       1.577170000000       1.009990000000       0.173579808147      -0.009868516872      -0.241027909815
16 2       0.318820000000       4.135210000000       0.889900000000      -0.146754693836       0.045973589980      -0.056997696757
17 2       1.358450000000       6.573900000000       8.190850000000      -0.093781903389       0.192009827514      -0.076685012110
18 2       3.061480000000       9.085520000000       8.190850000000       0.093672176762       0.191919879866      -0.076580742866
19 2       5.669570000000       5.927810000000       7.366180000000       0.092394985590      -0.104632293295      -0.036431599459
20 2       7.376440000000       8.439430000000       7.366180000000      -0.092455810286      -0.104548450324      -0.036438595833
21 2       4.632210000000       8.423220000000       5.504820000000      -0.147464304670      -0.048180576382      -0.056766072726
22 2       1.450500000000       8.469310000000       5.625160000000      -0.172246494839       0.009571207759      -0.239465338105
23 2       2.969420000000       5.957690000000       5.625160000000       0.172344851140       0.009652382030      -0.239525302820
24 2       8.413810000000       5.911590000000       5.504820000000       0.147427994424      -0.047965886521      -0.056747554172
25 2       1.356500000000       6.630220000000       2.751080000000       0.092973995740       0.103829210910      -0.034913715364
26 2       3.063430000000       9.141840000000       2.751090000000      -0.092933834550       0.103833303858      -0.034990516323
27 2       5.671010000000       5.984390000000       3.575650000000      -0.092164736368      -0.192418779146      -0.075486676616
28 2       7.375010000000       8.496010000000       3.575640000000       0.092118063038      -0.192457233910      -0.075336136899
29 2       4.101100000000       6.646830000000       0.889900000000       0.146838262517       0.045931818922      -0.057079742729
30 2       5.763570000000       9.112040000000       1.009990000000      -0.173686458701      -0.009985900927      -0.241024603999
31 2       7.282450000000       6.600420000000       1.009990000000       0.173601708079      -0.010034886525      -0.241041067210
32 2       0.318820000000       9.158450000000       0.889900000000      -0.146727054027       0.046012588363      -0.057006305332
33 1       7.201410000000       1.757370000000       4.373160000000       0.108983840364      -0.070336712193      -0.033211740863
34 1       0.016650000000       0.756360000000       0.006960000000      -0.005330698575       0.056585201111       0.143539246528
35 1       7.243970000000       0.118630000000       6.821330000000       0.162735134481      -0.087418313120       0.084619229105
36 1       7.183280000000       9.930240000000       2.114690000000       0.061741134252       0.204987364910       0.068921432450
37 1       5.844600000000       4.269000000000       4.373150000000      -0.108866377012      -0.070599713639      -0.033113950068
38 1       7.305530000000       3.292590000000       9.215890000000      -0.054528988507      -0.009902039960       0.017141955188
39 1       5.802040000000       2.630250000000       6.821330000000      -0.162735262056      -0.087339515391       0.084614175944
40 1       5.862750000000       2.395380000000       2.114690000000      -0.061797170026       0.204967865151       0.068967385177
41 1       1.427390000000       1.730630000000       4.600950000000       0.053667503131       0.009352916758       0.015102085412
42 1       2.888700000000       0.754430000000       8.988460000000       0.108972010314       0.070364219813      -0.032363253837
43 1       1.550170000000       0.115820000000       6.730210000000      -0.063951474665      -0.201809780695       0.067979324179
44 1       1.488960000000       9.927670000000       2.206490000000      -0.164421681734       0.087931403585       0.083828906692
45 1       0.090470000000       4.267160000000       4.622160000000       0.004165250585      -0.057204112159       0.142452669068
46 1       1.531220000000       3.266050000000       8.988470000000      -0.108846964340       0.070406302038      -0.032466736163
47 1       0.165340000000       2.401090000000       6.772260000000      -0.084905644961       0.076422273235       0.130104572047
48 1       8.567500000000       2.621910000000       2.157260000000       0.084688062050      -0.075232950107       0.129580949414
49 1       4.329460000000       1.755540000000       4.622160000000      -0.004323151614      -0.057209267648       0.142564088822
50 1       5.740480000000       0.780970000000       9.215890000000       0.054562550087      -0.009904337186       0.017146880391
51 1       4.254580000000       9.935950000000       6.772260000000       0.084999342159       0.076485303108       0.130145533929
52 1       4.478520000000       0.110290000000       2.157260000000      -0.084742606803      -0.075260639082       0.129597627080
53 1       2.992540000000       4.242250000000       4.600960000000      -0.053672747509       0.009320386793       0.014987991316
54 1       4.403280000000       3.267980000000       0.006960000000       0.005319610566       0.056619799447       0.143550338151
55 1       2.869750000000       2.627440000000       6.730220000000       0.063915574076      -0.201847140988       0.067885892111
56 1       2.930970000000       2.392810000000       2.206480000000       0.164378556763       0.087960858079       0.083949561244
57 1       7.201410000000       6.780620000000       4.373160000000       0.108990627868      -0.070487648628      -0.033156919368
58 1       0.016650000000       5.779600000000       0.006960000000      -0.005358151596       0.056651523775       0.143529600024
59 1       7.243970000000       5.141870000000       6.821330000000       0.162760187267      -0.087344377947       0.084589343606
60 1       7.183280000000       4.907000000000       2.114690000000       0.061750388677       0.204994529995       0.068930926387
61 1       5.844600000000       9.292240000000       4.373150000000      -0.108869374805      -0.070533423972      -0.033157052860
62 1       7.305530000000       8.315830000000       9.215890000000      -0.054529937481      -0.009854304861       0.017133086625
63 1       5.802040000000       7.653490000000       6.821330000000      -0.162746916729      -0.087320734161       0.084604675861
64 1       5.862750000000       7.418620000000       2.114690000000      -0.061822486486       0.205000211174       0.068967031597
65 1       1.427390000000       6.753870000000       4.600950000000       0.053650911106       0.009374805274       0.015109609750
66 1       2.888700000000       5.777670000000       8.988460000000       0.108965392837       0.070402403737      -0.032343921800
67 1       1.550170000000       5.139060000000       6.730210000000      -0.063969105055      -0.201747714562       0.067989812669
68 1       1.488960000000       4.904430000000       2.206490000000      -0.164412582144       0.087875910065       0.083816388078
69 1       0.090470000000       9.290400000000       4.622160000000       0.004185414983      -0.057154986939       0.142471959875
70 1       1.531220000000       8.289290000000       8.988470000000      -0.108839566886       0.070416241810      -0.032460017695
71 1       0.165340000000       7.424340000000       6.772260000000      -0.084846892994       0.076287091808       0.130084288654
72 1       8.567500000000       7.645150000000       2.157260000000       0.084709125927      -0.075216635833       0.129573965213
73 1       4.329460000000       6.778780000000       4.622160000000      -0.004284809099      -0.057109949232       0.142571835308
74 1       5.740480000000       5.804210000000       9.215890000000       0.054571757313      -0.009864904570       0.017145958629
75 1       4.254580000000       4.912710000000       6.772260000000       0.084971089811       0.076443369757       0.130121663371
76 1       4.478520000000       5.133530000000       2.157260000000      -0.084732565253      -0.075225680545       0.129586523922
77 1       2.992540000000       9.265490000000       4.600960000000      -0.053678705954       0.009320313931       0.014982190112
78 1       4.403280000000       8.291220000000       0.006960000000       0.005324390693       0.056637486024       0.143553951998
79 1       2.869750000000       7.650680000000       6.730220000000       0.063906208011      -0.201801770909       0.067901502547
80 1       2.930970000000       7.416050000000       2.206480000000       0.164385252116       0.087969430409       0.083946652404
