ITEM: TIMESTEP
0
ITEM: NUMBER OF ATOMS
80
ITEM: BOX BOUNDS pp pp pp
0.0000000000000000e+00 8.6260885710000004e+00
0.0000000000000000e+00 1.0046484325000000e+01
0.0000000000000000e+00 9.2301682360000008e+00
ITEM: ATOMS id type v_vir_xx v_vir_yy v_vir_zz v_vir_xy v_vir_xz v_vir_yz
1 2      -2.920315348396      -3.467972783464      -3.283511835781       0.699185603146       1.131078859377      -1.255720159833
2 2      -2.920274886833      -3.467993772874      -3.283516900064      -0.699146818937      -1.131118553858      -1.255704259420
3 2      -4.782396329429      -5.407146330182      -4.230160329614      -0.576214472224      -0.437870568611       0.530059144457
4 2      -4.782422151533      -5.407137068580      -4.230097323317       0.576227889945       0.437868602848       0.530065165088
5 2      -3.719347243577      -4.384134637269      -3.285827992421      -0.201439894365       0.691921701930      -0.014816060583
6 2      -3.952522672905      -4.680264846127      -4.834302634435       0.272301239146      -0.574633346212      -1.341972388714
7 2      -3.952548395034      -4.680226461673      -4.834325657795      -0.272298259761       0.574580615048      -1.342003781675
8 2      -3.719336785720      -4.384125726369      -3.285760163292       0.201440892586      -0.692007588885      -0.014799025310
9 2      -4.784258682536      -5.407634186829      -4.227973155666       0.576313549486      -0.437375459282      -0.530578444629
10 2      -4.784206926636      -5.407609966671      -4.227986765487      -0.576262228277       0.437372782007      -0.530577973851
11 2      -2.922481560519      -3.467179766091      -3.285467257077      -0.699994416280       1.132378794913       1.255026894373
12 2      -2.922401809176      -3.467085629642      -3.285425045342       0.700006479989      -1.132364161923       1.255012888217
13 2      -3.718654305857      -4.384112084818      -3.285763848347      -0.202537070056      -0.692318849332       0.014947753095
14 2      -3.950078780884      -4.683357439715      -4.834997195197      -0.272456008810      -0.574245838670       1.340539813606
15 2      -3.950078951905      -4.683419367874      -4.834947600414       0.272409189004       0.574335815593       1.340520305350
16 2      -3.718659168134      -4.384191949149      -3.285740861630       0.202567602428       0.692436925265       0.014998099641
17 2      -2.920325553432      -3.467947393377      -3.283519483837       0.699172320680       1.131079484888      -1.255722779032
18 2      -2.920268935574      -3.467950398045      -3.283536540098      -0.699148320873      -1.131115851614      -1.255696145678
19 2      -4.782416934032      -5.407149235716      -4.230142012141      -0.576210304651      -0.437858845142       0.530060676881
20 2      -4.782448569428      -5.407091836052      -4.230112903430       0.576257273053       0.437888958312       0.530050050883
21 2      -3.719379436622      -4.384109933122      -3.285825576977      -0.201437981345       0.691950411560      -0.014791487430
22 2      -3.952534297261      -4.680280372576      -4.834289871721       0.272287871564      -0.574637351927      -1.341953197631
23 2      -3.952547049958      -4.680238080126      -4.834334168681      -0.272295924901       0.574591887292      -1.342000456846
24 2      -3.719303789442      -4.384103733299      -3.285757562094       0.201414340708      -0.691993513619      -0.014821873903
25 2      -4.784273589502      -5.407698842880      -4.227993851150       0.576314478072      -0.437385450773      -0.530596148501
26 2      -4.784191633127      -5.407591960609      -4.228006394361      -0.576254282034       0.437355862379      -0.530587694831
27 2      -2.922482386313      -3.467191434228      -3.285472754960      -0.699973496357       1.132366777189       1.255047089660
28 2      -2.922417332113      -3.467155553646      -3.285456319992       0.700007450836      -1.132366195503       1.255030894434
29 2      -3.718662332162      -4.384132369042      -3.285774056292      -0.202541366073      -0.692316925220       0.014947367127
30 2      -3.950090881831      -4.683370008274      -4.834974909363      -0.272453572637      -0.574245033461       1.340543740430
31 2      -3.950089283234      -4.683446353781      -4.834977901904       0.272418216538       0.574323714899       1.340530107205
32 2      -3.718668779307      -4.384169138130      -3.285724239563       0.202562122405       0.692433923870       0.014997210431
33 1       0.656922769292       0.894052303744       0.654256286353       0.304015450453       0.651586410344      -0.685389894870
34 1       0.171683074627       0.859994999205       1.018409660542      -0.364593286611      -0.865400406815      -0.409631528234
35 1       1.169532065184       1.062809767656       0.404001900845      -0.200499487866      -0.364248878727      -0.604523996353
36 1       2.464210576966       2.476882853788       2.469300532834      -0.437644727522      -0.710687741713      -0.877200460767
37 1       0.657000314889       0.893973769231       0.654296603660      -0.304031834985      -0.651630327719      -0.685354257759
38 1       2.260824894452       1.894665904562       1.902745818747      -0.042898241669      -0.158483402010      -0.327355251585
39 1       1.169532518884       1.062784644806       0.404014249986       0.200514990296       0.364229855990      -0.604527772791
40 1       2.464219958025       2.476917290356       2.469316850885       0.437656956320       0.710642990146      -0.877226925871
41 1       2.260679263305       1.892905605212       1.903119497681      -0.043044181896       0.158847168816       0.327320359786
42 1       0.657199850119       0.891491939855       0.653683699226      -0.301922228653       0.651685698995       0.685790650049
43 1       2.462180219870       2.474355741961       2.469048481611      -0.436914445710       0.711887688193       0.877144630978
44 1       1.170306792389       1.063274385271       0.403721817440      -0.200454328910       0.363536606570       0.603929717934
45 1       0.170070665719       0.861961932363       1.019448514595      -0.365232276094       0.864071177651       0.410098318844
46 1       0.657214564387       0.891464030787       0.653642361252       0.301936465274      -0.651710749907       0.685746189911
47 1       1.441598952417       2.492347177295       1.938321256349      -0.035362353354       0.206842598983       0.175369966750
48 1       1.441878370291       2.494286201209       1.938552085582      -0.035960341578      -0.206464201430      -0.174346397211
49 1       0.170089408926       0.861988396548       1.019433949511       0.365303806896      -0.864089568807       0.410063713350
50 1       2.260862846831       1.894634614159       1.902743794921       0.042880600079       0.158478138663      -0.327337887777
51 1       1.441635455628       2.492340503345       1.938341229578       0.035382918660      -0.206832860164       0.175397292575
52 1       1.441937893371       2.494294124147       1.938629401796       0.035979235272       0.206463173442      -0.174364717522
53 1       2.260678938540       1.892884508805       1.903124603887       0.043015148321      -0.158883530271       0.327331595097
54 1       0.171682472270       0.859991635656       1.018420752708       0.364602472914       0.865391930401      -0.409616521200
55 1       2.462208468244       2.474417292067       2.469087729403       0.436887118884      -0.711872042798       0.877148042661
56 1       1.170302648128       1.063285898626       0.403723923752       0.200458460815      -0.363548022597       0.603943551101
57 1       0.656936130489       0.894014551995       0.654265607812       0.304001541487       0.651619141024      -0.685385553841
58 1       0.171701692014       0.859986858554       1.018424274201      -0.364611381009      -0.865417860813      -0.409619816921
59 1       1.169535013240       1.062782424504       0.404011760081      -0.200501866604      -0.364246682014      -0.604508945210
60 1       2.464205712969       2.476876385960       2.469304788836      -0.437649699869      -0.710690235228      -0.877207465436
61 1       0.656982117888       0.893994836259       0.654285865759      -0.304053217260      -0.651615600080      -0.685353717621
62 1       2.260836538517       1.894655186119       1.902745134316      -0.042894066266      -0.158483105233      -0.327348800666
63 1       1.169534974684       1.062786780981       0.404013424653       0.200501932315       0.364240529224      -0.604535287044
64 1       2.464215652341       2.476922543730       2.469316345608       0.437671964460       0.710644467449      -0.877231715570
65 1       2.260673332860       1.892884556335       1.903122576904      -0.043019011246       0.158846459830       0.327325236918
66 1       0.657196825026       0.891472109366       0.653684959481      -0.301912657442       0.651686150279       0.685783696381
67 1       2.462190681642       2.474352865462       2.469043764022      -0.436883430560       0.711889339221       0.877132317634
68 1       1.170301598397       1.063207314755       0.403718566359      -0.200446350564       0.363534089213       0.603915582724
69 1       0.170054381695       0.861961821312       1.019437076261      -0.365240433494       0.864074934521       0.410109298530
70 1       0.657225173739       0.891485561093       0.653651273700       0.301938178521      -0.651711670216       0.685747945103
71 1       1.441548238334       2.492324596032       1.938327862549      -0.035331405080       0.206863785034       0.175370701786
72 1       1.441869182072       2.494264775183       1.938549251551      -0.035968832205      -0.206465817369      -0.174359488717
73 1       0.170047682317       0.862019094599       1.019425439614       0.365285131411      -0.864075103071       0.410108004560
74 1       2.260859654486       1.894627336081       1.902738236281       0.042889612147       0.158472297756      -0.327326446366
75 1       1.441610067603       2.492334368592       1.938330394090       0.035350729825      -0.206837181461       0.175399889927
76 1       1.441913511584       2.494264838055       1.938621656092       0.035967993895       0.206466860199      -0.174365225208
77 1       2.260684112700       1.892876488929       1.903128639932       0.043028294429      -0.158886458909       0.327331856615
78 1       0.171698029521       0.860022091193       1.018431829382       0.364604172988       0.865390530056      -0.409612400919
79 1       2.462207583319       2.474391517816       2.469082801671       0.436903785629      -0.711863973496       0.877127117919
80 1       1.170304292137       1.063292867605       0.403724963286       0.200459909552      -0.363551012358       0.603945278883
