ITEM: TIMESTEP
0
ITEM: NUMBER OF ATOMS
20
ITEM: BOX BOUNDS xy xz yz pp pp pp
-1.4097261383580000e+00 1.2634893372084999e+01 0.0000000000000000e+00
0.0000000000000000e+00 3.1289210260000000e+00 -1.4097261383580000e+00
0.0000000000000000e+00 5.7926239146559997e+00 0.0000000000000000e+00
ITEM: ATOMS id type x y z fx fy fz
1 2       1.552490481577       1.564460000000       1.819971939210      -0.192000691561       0.000006961686      -0.197777738090
2 2       3.355224106475       0.000000000000       3.972652897867       0.192059378146      -0.000006961613       0.197717778567
3 2       0.009225221023       0.000000000000       4.604154019763      -0.020579898138      -0.000006664624      -0.036045449233
4 2       4.898499083431       1.564460000000       1.188473181954       0.020551859337       0.000006664812       0.036013740131
5 2       7.869941862205       0.000000000000       1.819971372746      -0.192035037473      -0.000006961616      -0.197740149200
6 2       9.672675487103       1.564460000000       3.972652331402       0.191995346216       0.000006961608       0.197747823855
7 2       6.326666885249       1.564460000000       4.604151088659      -0.020534244164       0.000006664811      -0.035958300946
8 2      11.215940747657       0.000000000000       1.188470250850       0.020617080449      -0.000006664627       0.036002170378
9 1       5.893411948513       0.000000000000       1.489840907657       0.098425591784      -0.000008309987       0.064748053887
10 1      -0.985697360461       1.564460000000       4.302783929421      -0.098339054842       0.000008309783      -0.064756383729
11 1       1.404579864186       0.000000000000       3.282122617411      -0.056495544808      -0.000002786959       0.002907550271
12 1       3.503146804908       1.564460000000       2.510494867903       0.056370026272       0.000002786905      -0.002761723404
13 1       3.038985115582       1.564460000000       5.156260579972      -0.002770230087       0.000007035718      -0.109200419625
14 1       1.868739188873       0.000000000000       0.636366621745       0.002739853349      -0.000007035714       0.109121102361
15 1      12.210863329141       1.564460000000       1.489840341192       0.098351533308       0.000008309791       0.064749870902
16 1       5.331754020167       0.000000000000       4.302783362956      -0.098408288607      -0.000008309985      -0.064741631173
17 1       7.722019163772       1.564460000000       3.282129402710      -0.056353341435       0.000002786896       0.002763532246
18 1       9.820588469133       0.000000000000       2.510491936799       0.056428158003      -0.000002786884      -0.002743238416
19 1       9.356426779807       0.000000000000       5.156257648868      -0.002725315905      -0.000007035714      -0.109171360529
20 1       8.186190569501       1.564460000000       0.636366055280       0.002702820153       0.000007035711       0.109124771747
