160
Config_type=bulk_gamma_phase Weight=1.0 Lattice="8.263715597 0.000000000 0.000000000 0.000000000 8.263715597 0.000000000 0.000000000 0.000000000 24.791146792" Energy=-1359.07011020 Virial="67.64635 0.64299 -19.88953 0.64299 67.03800 -1.90742 -19.88953 -1.90742 72.82234" pbc="T T T" Properties=species:S:1:pos:R:3:forces:R:3
Ga	      1.20243      5.13272     21.78946         0.012878      0.009329     -0.003555
Ga	      5.12855      0.83419     13.49979        -0.003023     -0.000198     -0.005592
Ga	      7.05560      7.30505      7.29421        -0.007555     -0.005026     -0.020542
Ga	      7.19255      7.03490     15.57124        -0.012753      0.002543      0.002049
Ga	      5.15025      5.18461      0.96759        -0.019700      0.004318     -0.000568
Ga	      2.98989      3.16321      7.12156        -0.001833      0.003056      0.019967
Ga	      0.93181      1.03536      1.09173        -0.012466     -0.005202     -0.023668
Ga	      5.09831      1.02528      5.17394         0.002295     -0.006255     -0.019650
Ga	      3.13694      2.91769     15.43420         0.012848      0.013270     -0.008053
Ga	      5.31623      1.09839     21.62684         0.008491     -0.003345     -0.009952
Ga	      3.09098      7.15201     11.36569        -0.008519     -0.010096     -0.024854
Ga	      7.32015      3.15154     19.55245        -0.015154      0.027221     -0.006808
Ga	      1.00644      5.02646     13.31420         0.001914     -0.005171     -0.020053
Ga	      7.23515      3.17185      3.16161         0.008398      0.001733      0.039897
Ga	      5.03293      5.27181      9.24239        -0.004916     -0.003134      0.005439
Ga	      7.26017      7.33537     23.78806         0.017770      0.000499     -0.004454
Ga	      3.15207      7.35783     19.68568         0.005996      0.017970      0.007315
Ga	      0.89612      1.06518      9.38915         0.008923      0.006076      0.005969
Ga	      3.18793      7.32874      3.03685        -0.001485     -0.013802      0.027984
Ga	      1.15775      1.02608     17.58785         0.006706      0.001421      0.000569
Ga	      3.86547      0.19722      8.27731        -0.006657      0.019067      0.016357
Ga	      6.06122      6.02891     12.37239        -0.000354      0.002441      0.008490
Ga	      2.13398      2.12235     20.67524        -0.012648     -0.006070      0.010914
Ga	      6.32018      6.20466     20.61487         0.013496      0.009816      0.007383
Ga	      1.92988      6.30821      8.17088        -0.003027      0.019892     -0.011955
Ga	      8.22528      2.03054      6.16010        -0.003554     -0.018618      0.011371
Ga	      1.96923      2.06240      4.17206        -0.032652     -0.010949      0.005882
Ga	      0.03731      1.98643     14.41043         0.008802      0.007885     -0.001524
Ga	      0.17365      6.12051     18.55251         0.004898      0.001897      0.010915
Ga	      6.18733      0.05448      2.07487        -0.004794     -0.015862      0.016407
Ga	      6.01636      0.07792     10.39261        -0.006582     -0.000950      0.007163
Ga	      4.12559      2.16676     18.54660         0.013856     -0.000833      0.011992
Ga	      6.32740      8.21233     18.59076         0.002125      0.006252     -0.001053
Ga	      6.26815      2.04262     16.51951        -0.006389     -0.016810     -0.019500
Ga	      0.15859      2.04753     22.77812        -0.017025     -0.009142      0.001170
Ga	      1.99797      8.04514     14.56077         0.015386      0.001329     -0.005377
Ga	      3.96358      5.94041     14.47107         0.000141     -0.001446      0.015555
Ga	      6.18308      4.15270      6.20866         0.008817      0.003416      0.003072
Ga	      4.14809      6.30694     22.76624         0.004668      0.027134     -0.004224
Ga	      0.10158      4.13471     16.53166         0.016318     -0.010078      0.001695
Ga	      2.05865      4.18535      2.06530        -0.005604     -0.019099      0.003210
Ga	      4.09637      4.24420     20.60932        -0.003380      0.000955      0.012623
Ga	      4.09520      8.06482     16.59257        -0.007744     -0.004204     -0.003908
Ga	      6.20285      4.18832     22.69527        -0.000428     -0.021207     -0.030223
Ga	      8.19977      6.11386     10.31875         0.015992     -0.001890     -0.008942
Ga	      8.24395      8.20740     12.41017        -0.006925      0.008482     -0.000845
Ga	      0.05005      4.21505      0.02533        -0.002497     -0.000819      0.011477
Ga	      6.14400      4.01547     14.43823         0.009995     -0.015099      0.011323
Ga	      4.06704      4.14387      4.10734         0.010584      0.014217     -0.025219
Ga	      2.10461      2.00772     12.31778         0.004284      0.009886     -0.009383
Ga	      2.07003      4.05017     10.34261         0.007595      0.007791     -0.011277
Ga	      0.03645      6.33316      2.17090        -0.000264      0.004855     -0.035864
Ga	      0.19966      8.22702     20.76208         0.018919     -0.015411     -0.023268
Ga	      4.06738      2.02744      1.95282         0.022291      0.003447      0.003226
Ga	      6.12083      2.03438     24.74761         0.005989     -0.009294     -0.000223
Ga	      8.23237      4.09297      8.26097         0.000249     -0.003819     -0.015258
Ga	      6.01055      2.14171      8.36647        -0.012875     -0.002917     -0.023276
Ga	      3.96172      6.34149      6.13743         0.006195      0.008635      0.005644
Ga	      6.25117      6.32943      4.18101         0.003005      0.006569     -0.006351
Ga	      2.15018      6.30617     24.75482         0.000779      0.007173     -0.018855
Ga	      5.11142      3.08348     11.40594         0.016559     -0.016847      0.010695
Ga	      3.12875      1.07799     23.73683        -0.003740      0.026146     -0.003075
Ga	      3.14702      5.09440     17.55821        -0.004753      0.017370      0.021447
Ga	      0.97272      7.28173      5.15358         0.009192     -0.020062     -0.003513
O	      2.08814      2.12491      2.09831         0.004185     -0.002127      0.002164
O	      6.05396      6.15501      6.16374        -0.004866     -0.005549     -0.005373
O	      4.15585      8.21966      6.33263        -0.001842     -0.004209     -0.002929
O	      4.24456      0.12843      2.01918        -0.007471      0.004558     -0.001165
O	      8.15156      6.22109      4.07821         0.000602      0.009255     -0.005632
O	      0.02145      2.10977      4.20655        -0.002873      0.006652     -0.010664
O	      6.13005      4.12449      8.23021        -0.005159      0.002791     -0.001383
O	      1.92465      4.35823      0.19286        -0.006167      0.009324     -0.003169
O	      8.26068      4.28439      2.03799        -0.002387      0.004987      0.000932
O	      8.05166      3.98406      6.39110        -0.015907     -0.003872      0.005155
O	      4.21805      2.13183      0.03959         0.001144      0.005894      0.012149
O	      3.95996      6.31259      8.13779         0.003018     -0.006805     -0.004687
O	      2.08531      0.07894      4.11084        -0.005489     -0.007639     -0.008949
O	      6.07921      8.21876      4.03798        -0.007597     -0.007209      0.007099
O	      2.05895      6.25413      6.25366         0.000439     -0.003611      0.007869
O	      6.13709      2.10205      2.00316         0.004696     -0.001358      0.000276
O	      4.11958      4.07586      2.08904        -0.001718      0.004259     -0.000798
O	      4.16805      4.27147      6.10008        -0.007101      0.005271      0.002072
O	      8.06251      2.07489      8.23422         0.011107     -0.003168     -0.004852
O	      0.04900      6.21779      0.09418        -0.006164      0.000380     -0.005139
O	      8.12006      0.06321      6.21043         0.001563     -0.007692     -0.006817
O	      8.13234      8.23671      2.10953         0.007174     -0.009962     -0.001137
O	      4.18410      6.15536      4.16547        -0.009893     -0.001398     -0.003159
O	      4.06230      2.14162      4.04434        -0.000257     -0.002382      0.004543
O	      6.16672      2.14016      6.27210        -0.001966     -0.003373     -0.006902
O	      2.02570      6.24292      2.03004         0.000131     -0.001936      0.005695
O	      2.19281      4.01088      3.93523         0.007676     -0.006572     -0.000566
O	      6.07280      4.25695      4.20568        -0.003527      0.002266      0.002777
O	      6.27908      0.14400      0.10936         0.003262      0.010173     -0.002597
O	      1.98234      8.22057      8.36892         0.001760     -0.006881      0.005756
O	      6.23659      6.26304      2.12714        -0.005092      0.008497      0.002805
O	      1.90795      2.09494      6.10175        -0.002633      0.006375     -0.000505
O	      2.02539      2.10813     10.38449        -0.004027     -0.008028      0.000791
O	      6.11581      6.04451     14.39012         0.006279      0.001053      0.006958
O	      4.04784      8.06726     14.59728         0.005279      0.011248      0.000651
O	      4.13570      8.13417     10.21207         0.003689      0.001143      0.000793
O	      8.12650      6.20469     12.31405        -0.008978      0.000136      0.008073
O	      0.14602      1.81165     12.54510         0.007500     -0.009569      0.017895
O	      6.43106      3.89985     16.32648         0.002719     -0.008063     -0.000736
O	      1.99478      4.25776      8.28502         0.006993     -0.004471      0.002472
O	      0.10524      4.24788     10.13065        -0.000453      0.004996     -0.002033
O	      8.25665      3.96656     14.48523         0.005496     -0.004579     -0.006353
O	      4.09675      2.08437      8.15480        -0.018868      0.008044     -0.002738
O	      4.12549      6.17816     16.41626        -0.002770      0.003998     -0.004492
O	      1.99164      8.21559     12.46557        -0.007587     -0.006209      0.005515
O	      6.24024      8.09712     12.35797        -0.004872      0.003580     -0.001963
O	      2.06199      6.14985     14.34907        -0.000155     -0.017128      0.000505
O	      6.09589      1.98547     10.27609        -0.005001     -0.002208     -0.006179
O	      4.04908      4.18438     10.33659         0.005898      0.001647      0.005087
O	      4.21635      4.05334     14.49758        -0.006456      0.003084      0.003605
O	      0.02181      2.01325     16.42983         0.000999     -0.008149      0.000880
O	      8.20592      6.19460      8.29592         0.000726     -0.002920     -0.008065
O	      0.02102      8.16436     14.46043        -0.000507     -0.012306     -0.004303
O	      8.08071      8.13051     10.41568         0.000333      0.005273     -0.005415
O	      4.18329      6.22890     12.53196         0.005597      0.000428      0.002619
O	      4.08771      1.91583     12.43736         0.005359     -0.004920      0.008096
O	      6.28225      1.94715     14.49594        -0.007187     -0.003762      0.015755
O	      1.95680      6.12014     10.25407        -0.001242     -0.001397      0.005546
O	      2.05841      3.95720     12.27813        -0.011689     -0.003846      0.010317
O	      6.18197      4.13025     12.50292        -0.000180      0.001710     -0.008298
O	      6.01117      0.10732      8.39439         0.004576     -0.003205      0.000369
O	      2.18977      0.01347     16.45837        -0.006335      0.006931     -0.001012
O	      6.19935      6.24665     10.37580        -0.002868     -0.005283      0.000379
O	      2.04971      1.83726     14.37859        -0.002125     -0.001883      0.011548
O	      2.23351      2.00245     18.70805         0.007902      0.001558     -0.006958
O	      6.24573      6.21786     22.63524         0.008970      0.005196     -0.000787
O	      4.26791      0.02962     22.69207        -0.005942      0.016458     -0.000671
O	      4.31286      0.07525     18.54632        -0.000535     -0.007313      0.005145
O	      0.09962      6.24924     20.66909         0.004244      0.003006      0.001070
O	      0.09891      2.04668     20.72253        -0.010002     -0.008548     -0.004853
O	      6.31003      4.10588     24.70723        -0.002725      0.011864      0.009538
O	      2.07725      3.98057     16.50718         0.011258     -0.007718      0.005613
O	      0.10223      4.17662     18.47745        -0.013807      0.004391      0.004270
O	      8.22012      4.09838     22.81157        -0.004388     -0.004268     -0.002935
O	      4.27445      1.90211     16.58526        -0.001473      0.000494     -0.001905
O	      4.10331      6.24877     24.70921         0.001713     -0.009069      0.001258
O	      2.08289      0.15161     20.70216         0.004512      0.000717     -0.008237
O	      6.40076      8.26073     20.58928         0.002969      0.001271      0.013403
O	      2.20267      6.27063     22.82185         0.003859     -0.003938      0.011275
O	      6.21379      1.96403     18.52334         0.003987      0.000842      0.006561
O	      4.21610      4.06927     18.68510         0.000387     -0.003325      0.000132
O	      4.35063      4.37472     22.50527         0.007545      0.009301     -0.004156
O	      8.19419      2.20867     24.75661         0.011722      0.004837     -0.000272
O	      0.07718      6.07039     16.60401        -0.009530     -0.001602     -0.004002
O	      8.22116      0.14759     22.65174        -0.014286     -0.001417      0.001316
O	      0.06179      8.22330     18.68670         0.003003     -0.006532     -0.001194
O	      4.30380      6.26427     20.68861         0.001464     -0.001213      0.007253
O	      4.19427      2.16948     20.56667         0.003022     -0.001516      0.008563
O	      6.33497      2.20526     22.77070         0.002616      0.005259      0.004202
O	      2.13098      6.23481     18.63058         0.005760     -0.009321     -0.003969
O	      2.18581      4.06218     20.67903        -0.003732      0.010871      0.008118
O	      6.26103      4.22183     20.68349         0.008640     -0.000095     -0.000120
O	      6.16508      0.01228     16.59418        -0.004285     -0.005959     -0.006919
O	      2.03817      0.01891      0.02110        -0.007327      0.013498      0.002923
O	      6.49405      6.34044     18.74893         0.000142      0.005541      0.010672
O	      2.04370      2.10749     22.64386        -0.011526      0.008014      0.000189
