ITEM: TIMESTEP
0
ITEM: NUMBER OF ATOMS
20
ITEM: BOX BOUNDS xy xz yz pp pp pp
-1.4013845637169999e+00 1.2560130690333001e+01 0.0000000000000000e+00
0.0000000000000000e+00 3.1104067010000001e+00 -1.4013845637169999e+00
0.0000000000000000e+00 5.7583480333599999e+00 0.0000000000000000e+00
ITEM: ATOMS id type v_vir_xx v_vir_yy v_vir_zz v_vir_xy v_vir_xz v_vir_yz
1 2      -0.598807105023      -0.047243409598      -2.798104540506      -0.000003534231       0.577913439446      -0.000005281520
2 2      -0.598862897346      -0.047246634429      -2.798107580160      -0.000003534082       0.577932789744      -0.000005281279
3 2      -2.248469754262      -2.355340829365      -0.417183749623       0.000019755802       0.052546352757       0.000006994385
4 2      -2.248460686672      -2.355345411249      -0.417201198718       0.000019755761       0.052535715264       0.000006993496
5 2      -0.598839881619      -0.047233059674      -2.797992482649       0.000003534267       0.577904690082       0.000005281202
6 2      -0.598783720211      -0.047219507026      -2.798098566069       0.000003534205       0.577897974142       0.000005281566
7 2      -2.248489673699      -2.355324840711      -0.417214306265      -0.000019755818       0.052563401920      -0.000006993350
8 2      -2.248465196850      -2.355337380212      -0.417184392932      -0.000019755862       0.052543379741      -0.000006992150
9 1       1.653764240427       0.554793420626      -0.165737960583       0.000030335620       0.460135195883       0.000009195765
10 1       1.653765462457       0.554820899996      -0.165719041633       0.000030334977       0.460117821441       0.000009194664
11 1       1.632236216957       1.397461466339       2.927940865905       0.000009849113      -0.327875371776       0.000000625461
12 1       1.632241126124       1.397428863471       2.927913624860       0.000009848410      -0.327885587993       0.000000625132
13 1       0.741577081693       1.734566887268       1.688881118907       0.000005282579      -0.676667095997      -0.000007717246
14 1       0.741590371306       1.734571935380       1.688880197090       0.000005283068      -0.676680395112      -0.000007717179
15 1       1.653764714505       0.554821333359      -0.165719032773      -0.000030334982       0.460118415456      -0.000009194669
16 1       1.653728117098       0.554774113327      -0.165754202995      -0.000030336405       0.460134640850      -0.000009195995
17 1       1.632190524300       1.397416977029       2.927865662334      -0.000009848330      -0.327840896790      -0.000000623148
18 1       1.632236019258       1.397468819588       2.927929872932      -0.000009848699      -0.327866033718      -0.000000625576
19 1       0.741579543868       1.734556006423       1.688872663198      -0.000005282841      -0.676687966894       0.000007717439
20 1       0.741579735249       1.734563019557       1.688859749564      -0.000005282563      -0.676659962447       0.000007717302
