ITEM: TIMESTEP
0
ITEM: NUMBER OF ATOMS
20
ITEM: BOX BOUNDS xy xz yz pp pp pp
-1.4013845637169999e+00 1.2560130690333001e+01 0.0000000000000000e+00
0.0000000000000000e+00 3.1104067010000001e+00 -1.4013845637169999e+00
0.0000000000000000e+00 5.7583480333599999e+00 0.0000000000000000e+00
ITEM: ATOMS id type x y z fx fy fz
1 2       1.549178125661       1.555200000000       1.806517111177      -0.005474709960       0.000028233592       0.063332581762
2 2       3.329498594392       0.000000000000       3.951829187103       0.005554193577      -0.000028233931      -0.063328754721
3 2       0.010996135207       0.000000000000       4.575901544429      -0.011199372919      -0.000050142343      -0.029656054803
4 2       4.867690301249       1.555200000000       1.182447118490       0.011181157170       0.000050142022       0.029667736139
5 2       7.829249190625       0.000000000000       1.806517474506      -0.005552817710      -0.000028230816       0.063341730430
6 2       9.609569659357       1.555200000000       3.951829550433       0.005470588674       0.000028233656      -0.063317664339
7 2       6.291057483768       1.555200000000       4.575899543120      -0.011228798420       0.000050141804      -0.029618860389
8 2      11.147751649811       0.000000000000       1.182445117180       0.011200720785      -0.000050142662       0.029647681395
9 1       5.865439041718       0.000000000000       1.477702069832      -0.014123009278      -0.000060829368      -0.002843613857
10 1      -0.986752605262       1.555200000000       4.280646593087       0.014114318463       0.000060830143       0.002836689697
11 1       1.393067537626       0.000000000000       3.256308279588      -0.032414790528      -0.000015317635       0.017730675306
12 1       3.485618898830       1.555200000000       2.502040383331       0.032360112816       0.000015317188      -0.017749509331
13 1       2.998825808800       1.555200000000       5.129196831413      -0.012906841677       0.000029066790       0.013843094030
14 1       1.879860627656       0.000000000000       0.629151831506       0.012884986817      -0.000029066902      -0.013833614101
15 1      12.145500390280       1.555200000000       1.477700068522      -0.014114248181       0.000060830139      -0.002836734599
16 1       5.293308743299       0.000000000000       4.280644591777       0.014117543423      -0.000060829203       0.002854931119
17 1       7.673126521548       1.555200000000       3.256315994681      -0.032285753886       0.000015316003       0.017606107770
18 1       9.765680247391       0.000000000000       2.502038382021       0.032393547919      -0.000015317992      -0.017723541460
19 1       9.278887157361       0.000000000000       5.129194830103      -0.012871347929      -0.000029067272       0.013845669948
20 1       8.159921976218       1.555200000000       0.629149830196       0.012894520847       0.000029066788      -0.013798549997
