ITEM: TIMESTEP
0
ITEM: NUMBER OF ATOMS
30
ITEM: BOX BOUNDS xy xz yz pp pp pp
-2.5267940850000001e+00 5.0535881710000004e+00 -2.5267940850000001e+00
0.0000000000000000e+00 4.3765361530000000e+00 0.0000000000000000e+00
0.0000000000000000e+00 1.3604621138000001e+01 0.0000000000000000e+00
ITEM: ATOMS id type x y z fx fy fz
1 2       0.000000000000       0.000000000000       1.960330000000      -0.000013690262       0.000032705546      -0.005640188010
2 2       0.000000000000       2.917690000000       0.307110000000      -0.000027635487       0.000048626110       0.005521406172
3 2       2.526790000000       1.458850000000       2.574540000000       0.000111419307      -0.000076260714       0.005591270909
4 2       0.000000000000       2.917690000000       4.227770000000       0.000015004036       0.000040666333      -0.005523118694
5 2       2.526790000000       1.458850000000       6.495200000000       0.000019589837      -0.000064585497      -0.005566303993
6 2       0.000000000000       0.000000000000       4.841980000000      -0.000055475139      -0.000010223788       0.005646649039
7 2       0.000000000000       2.917690000000       7.109420000000      -0.000012148151       0.000039184204       0.005529364537
8 2       0.000000000000       0.000000000000       8.762640000000      -0.000011823475       0.000044145828      -0.005636813265
9 2       0.000000000000       2.917690000000      11.030080000000      -0.000046046922       0.000043202601      -0.005516883487
10 2       2.526790000000       1.458850000000       9.376850000000       0.000032688891      -0.000077768201       0.005598673454
11 2       0.000000000000       0.000000000000      11.644290000000      -0.000021490303       0.000006507628       0.005643489648
12 2       2.526790000000       1.458850000000      13.297510000000       0.000064330773      -0.000082283979      -0.005556603433
13 1      -0.765730000000       1.326300000000       3.401160000000       0.012359271865      -0.021680937973      -0.000115373638
14 1       1.531480000000       0.000000000000       3.401160000000      -0.024990468407       0.000031506033      -0.000079213673
15 1       1.761060000000       3.050240000000       3.401160000000       0.012457941032       0.021648200163      -0.000024659856
16 1       3.292530000000       0.132550000000       1.133710000000      -0.012444638554       0.021669529069       0.000163952058
17 1       3.292530000000       2.785140000000       1.133710000000      -0.012517181842      -0.021593274245       0.000161087037
18 1       0.995320000000       1.458850000000       1.133710000000       0.024976462391      -0.000106256171       0.000173142505
19 1       1.761060000000       2.785140000000       7.936020000000       0.012484510204      -0.021602376404       0.000136105308
20 1       4.058270000000       1.458850000000       7.936020000000      -0.024989331184      -0.000109443658       0.000179922866
21 1       1.761060000000       0.132550000000       7.936020000000       0.012408258394       0.021681409041       0.000186119252
22 1       0.765730000000       1.591390000000       5.668600000000      -0.012464902419       0.021720263618      -0.000074613107
23 1       0.765730000000       4.243990000000       5.668600000000      -0.012396664885      -0.021728798157      -0.000131710437
24 1      -1.531480000000       2.917690000000       5.668600000000       0.025009102217       0.000063538689      -0.000121470654
25 1      -0.765740000000       4.243990000000      12.470910000000       0.012497248555      -0.021710947505      -0.000099492139
26 1       1.531480000000       2.917690000000      12.470910000000      -0.025086312834       0.000069643016      -0.000124204780
27 1      -0.765740000000       1.591390000000      12.470910000000       0.012552914182       0.021700998450      -0.000091945005
28 1       3.292528171000       3.050240000000      10.203470000000      -0.012475404184       0.021642715593      -0.000048620184
29 1       0.765730000000       1.326300000000      10.203470000000      -0.012389556348      -0.021676122548      -0.000096329494
30 1       3.522110000000       0.000000000000      10.203470000000       0.024954028714       0.000036436920      -0.000083638936
