ITEM: TIMESTEP
0
ITEM: NUMBER OF ATOMS
40
ITEM: BOX BOUNDS pp pp pp
0.0000000000000000e+00 8.8373397189999991e+00
0.0000000000000000e+00 5.1462603380000003e+00
0.0000000000000000e+00 9.4562131730000001e+00
ITEM: ATOMS id type c_pe_atom
1 2      -4.840637216938
2 2      -4.840628656325
3 2      -4.471462013022
4 2      -4.471467160473
5 2      -4.954623782081
6 2      -4.798988924538
7 2      -4.798987391694
8 2      -4.954631125782
9 2      -4.471310841246
10 2      -4.471308520207
11 2      -4.839553428524
12 2      -4.839555691470
13 2      -4.955922948188
14 2      -4.799175332072
15 2      -4.799175128684
16 2      -4.955926063126
17 1     -11.157099665931
18 1     -11.155499583284
19 1     -11.087256285694
20 1     -10.551877407274
21 1     -11.157108860633
22 1     -11.064793819206
23 1     -11.087246548175
24 1     -10.551874561316
25 1     -11.064498666404
26 1     -11.156695048067
27 1     -10.550889227146
28 1     -11.087171008345
29 1     -11.156169804787
30 1     -11.156698020942
31 1     -11.027326551291
32 1     -11.027126534364
33 1     -11.156174301196
34 1     -11.064781258611
35 1     -11.027317996225
36 1     -11.027128518110
37 1     -11.064495311115
38 1     -11.155493981908
39 1     -10.550865735256
40 1     -11.087178653747
