ITEM: TIMESTEP
0
ITEM: NUMBER OF ATOMS
40
ITEM: BOX BOUNDS pp pp pp
0.0000000000000000e+00 8.8373397189999991e+00
0.0000000000000000e+00 5.1462603380000003e+00
0.0000000000000000e+00 9.4562131730000001e+00
ITEM: ATOMS id type x y z fx fy fz
1 2       1.384760000000       1.594410000000       8.399430000000       0.096429313980      -0.013695875589       0.035642383766
2 2       3.143410000000       4.167540000000       8.399440000000      -0.096355283601      -0.013734053641       0.035543467735
3 2       5.822040000000       0.907630000000       7.553600000000      -0.033616010422      -0.015907496136      -0.073625627818
4 2       7.543470000000       3.480760000000       7.553610000000       0.033367024840      -0.015865388036      -0.073762119862
5 2       4.760530000000       3.485910000000       5.637660000000       0.172749836197      -0.147120905157       0.137961350875
6 2       1.483530000000       3.532860000000       5.764330000000       0.092684647569      -0.099478320829       0.230424220931
7 2       3.044630000000       0.959730000000       5.764330000000      -0.092580796021      -0.099473271404       0.230459928131
8 2       8.604980000000       0.912780000000       5.637670000000      -0.172758919562      -0.147171974457       0.137809249470
9 2       1.403420000000       1.665150000000       2.825520000000      -0.033963236489       0.016004616701      -0.073242619558
10 2       3.124760000000       4.238280000000       2.825520000000       0.033870793631       0.015973899147      -0.073217377131
11 2       5.802490000000       0.979380000000       3.671320000000       0.093838244586       0.014711331125       0.038251756466
12 2       7.563020000000       3.552510000000       3.671320000000      -0.093846913252       0.014673236818       0.038218039602
13 2       4.187220000000       1.660900000000       0.909780000000      -0.171207453789       0.149250453330       0.141339566815
14 2       5.902030000000       4.186510000000       1.035900000000       0.093314471180       0.101196511389       0.231389850584
15 2       7.463490000000       1.613380000000       1.035900000000      -0.093426714110       0.101186693356       0.231435178068
16 2       0.340950000000       4.234030000000       0.909780000000       0.171262864780       0.149284634602       0.141439602015
17 1       7.378970000000       1.789110000000       4.454520000000       0.037995154751      -0.040096959451       0.021932112549
18 1       0.041170000000       0.782350000000       0.049420000000       0.085146493412      -0.083756120058       0.000719172508
19 1       7.409330000000       0.090920000000       6.987420000000       0.016636619453       0.089977254582      -0.117572689561
20 1       7.333760000000       4.996220000000       2.139680000000       0.073052238977      -0.098395852010      -0.114480847695
21 1       5.986540000000       4.362240000000       4.454520000000      -0.037979007966      -0.040060325829       0.021880404564
22 1       7.492360000000       3.365260000000       9.437980000000       0.016130910960      -0.032218368705      -0.137467715211
23 1       5.956170000000       2.664050000000       6.987420000000      -0.016477272858       0.090068967755      -0.117535263174
24 1       6.031760000000       2.423090000000       2.139680000000      -0.073077621406      -0.098382257123      -0.114453738919
25 1       1.454030000000       1.780710000000       4.710070000000      -0.016448472592       0.032252503228      -0.138612737293
26 1       2.961190000000       0.784690000000       9.182940000000       0.035120349256       0.038806892114       0.020423420335
27 1       1.614540000000       0.149020000000       6.868700000000      -0.072833823228       0.097065472007      -0.107510626885
28 1       1.537570000000       5.054970000000       2.259460000000      -0.018047831482      -0.088800204733      -0.117917741865
29 1       0.068960000000       4.364550000000       4.777770000000      -0.087890967219       0.082160832448      -0.000341148852
30 1       1.566980000000       3.357820000000       9.182940000000      -0.035174576028       0.038776403592       0.020430331880
31 1       0.151520000000       2.449520000000       6.938050000000      -0.140899736401       0.043367006131       0.011054709608
32 1       8.794970000000       2.696290000000       2.210260000000       0.140618609500      -0.045369722713       0.011721295429
33 1       4.459210000000       1.791420000000       4.777780000000       0.087909961662       0.082029312014      -0.000467864515
34 1       5.873150000000       0.792130000000       9.437980000000      -0.016111942803      -0.032221127952      -0.137519426752
35 1       4.376640000000       5.022640000000       6.938050000000       0.140984517663       0.043480078173       0.011069911005
36 1       4.570540000000       0.123160000000       2.210260000000      -0.140504342305      -0.045328881515       0.011720883406
37 1       3.074140000000       4.353830000000       4.710070000000       0.016421305106       0.032353007740      -0.138629957953
38 1       4.487000000000       3.355480000000       0.049420000000      -0.085061879024      -0.083749443693       0.000806897194
39 1       2.913620000000       2.722150000000       6.868700000000       0.072732993120       0.097006074297      -0.107440924710
40 1       2.990610000000       2.481840000000       2.259460000000       0.017996449935      -0.088798631521      -0.117875305184
