ITEM: TIMESTEP
0
ITEM: NUMBER OF ATOMS
160
ITEM: BOX BOUNDS pp pp pp
0.0000000000000000e+00 8.3282925250000002e+00
0.0000000000000000e+00 8.3282925250000002e+00
0.0000000000000000e+00 2.4984877573999999e+01
ITEM: ATOMS id type v_vir_xx v_vir_yy v_vir_zz v_vir_xy v_vir_xz v_vir_yz
1 2      -3.587948448540      -1.457687137159      -1.520160418505      -0.007710148817      -0.181175316401      -0.101635076528
2 2      -3.909776507673      -3.018750650637      -3.489053964055      -0.258565435498       0.503717857455       0.089713888111
3 2      -2.793510639335      -3.869270710697      -3.259584359120       0.317217543383       0.477487386990      -0.033223938480
4 2      -1.225619516255      -3.334786572703      -3.338245378516       0.346571194445      -0.239874535635       0.540314046937
5 2      -3.450199287801      -1.441887705885      -3.259195750016       0.144943213470      -0.043033884405       0.054892319021
6 2      -3.571206915524      -1.564547614423      -2.078119781918       0.249613228519      -0.006787222405      -0.400660506583
7 2      -2.903988109306      -4.098990690387      -1.608771110854      -0.628710449495       0.040674057126      -0.030711702515
8 2      -1.046302148760      -4.430547743852      -3.402363285030       0.087792578202      -0.240685231328      -0.305366436178
9 2      -4.260347824580      -3.045608267561      -1.551435031376      -0.599658618179       0.095328825266      -0.340580136496
10 2      -3.022298113814      -3.890361900815      -3.355338296023       0.325146615712       0.095377704826      -0.292693445774
11 2      -4.508826713066      -1.370591651272      -3.592065071550      -0.032155930102       0.346793834397      -0.195602393870
12 2      -1.230353341263      -3.340596242183      -3.310988047771      -0.013791050316       0.516029053844       0.478163227029
13 2      -1.672820620165      -3.540415595565      -2.276786169417      -0.354594495808       0.673787920137      -0.116117014736
14 2      -3.363002828194      -1.421637716831      -3.337276027803       0.175533591999      -0.046200956464       0.029438858197
15 2      -3.952571173217      -2.769396442834      -3.240526161186       0.338945612429       0.173904677871       0.380360486608
16 2      -0.759516044080      -4.269804596195      -3.641069565829      -0.076667525521      -0.280428100627      -0.062791697642
17 2      -3.846065748239      -3.131089502419      -1.686763633232       0.544391100930       0.034436901839       0.161007184661
18 2      -1.519550774262      -3.608912799445      -2.036301375122       0.078780354874      -0.296048550134      -0.315321536875
19 2      -2.929753062938      -4.098601597226      -1.599522807339      -0.624634986582       0.085872516839      -0.007591154843
20 2      -4.224676389662      -0.815785504759      -3.628457783691       0.159011478723       0.279742015123       0.575983054521
21 2      -2.475142582447      -2.572540361595      -0.069878353574      -0.650362212955       0.132106769144       0.119671318516
22 2      -1.987660977238      -2.120870001194      -3.935978562289      -0.616920936399      -0.263051133861       0.451847258480
23 2      -3.619734405749      -0.557371872492      -0.479790847717      -0.283152757487       0.473463199114       0.504062680591
24 2      -2.717494542092      -3.511200413075      -3.111829605642      -0.775343198872       1.335218583703       1.301155073057
25 2      -3.575412341761      -1.348524966190      -1.909030729401      -0.454195394442       0.469451733447       1.024694080326
26 2      -2.289236881052       0.032566246975      -2.048747127038       0.384282959626       0.274453905947      -0.716810303132
27 2      -2.060961773231       0.461259905706      -2.381304473719      -0.413316331420       0.333563888295       0.260046089608
28 2      -3.280963080137      -3.086702851698      -3.252891884162       0.800589267207       1.351988881528      -1.396642997409
29 2      -0.087722216671      -2.067761960867      -1.913606873173       0.265422481084       0.523319727460      -0.510549775900
30 2      -0.596789564605      -3.662425727864      -0.428808939892       0.836944959879       0.282648677196       0.683584431418
31 2      -1.711486133446      -2.103019495854      -3.891929015982       0.352683779432       0.677704396297       0.295043092483
32 2      -1.697046392817      -1.711495877239      -4.093768023235       0.455978321628      -0.137563801020       0.170111779453
33 2      -3.094520055482      -3.124236114132      -3.721922132616       0.770004441510      -0.104452409722       1.128821287301
34 2      -3.304709205208      -2.969976177371      -3.997654125353      -0.786433471836       0.252786900106       1.317884335158
35 2      -2.167440867927      -1.721957496725      -3.494391168603       0.406092496198       0.551485372609       0.619838983488
36 2      -3.453812896673      -1.760291873399      -1.990320519879       1.182156676615      -0.402683321164       0.114064410734
37 2      -2.218242005666      -2.583456357237      -0.329880511399       0.063253552826       0.843609356224       0.269750773694
38 2      -2.805650993202      -3.226814383173      -3.429719029687       0.672808031513      -0.616298328912       0.172536208075
39 2      -2.146584667201       0.319321295730      -2.392559209950       0.346701993222       0.064042558830      -0.672743185405
40 2       0.147230335904      -2.330749826734      -2.450168635088      -0.354047619405      -0.270183522591      -0.111175123754
41 2      -3.166106454174      -2.917995019111      -2.394738653278       0.160214601977      -1.466804297968       1.425152513326
42 2      -1.776122339601      -3.197773644538      -0.914522975613       0.249329065170      -1.041595947709      -0.554136929583
43 2      -1.718744521253      -1.971171704847      -4.014785206677      -0.373766875369       0.659745926259      -0.099769365915
44 2      -2.913315060351      -3.448146824945      -3.555950511332       0.759069045208      -0.715767201724       0.260656202061
45 2      -3.346686177799      -2.901683717440      -3.664199542596       0.712731148207       0.383548460908      -0.846597331937
46 2      -3.200444308635      -3.056094794165      -3.207903266457      -0.605886469940      -0.009664866894      -0.816647640119
47 2      -2.902160959626      -3.289367610402      -3.361585016308      -0.726745691097      -0.829782649320      -0.072767249590
48 2      -1.660837568731      -3.224815512111      -1.210951583921      -0.220622330588      -1.057181180319       0.733476060462
49 2      -2.885211854627      -3.325548703051      -3.529123818312      -0.777499921979      -0.898571359351       0.046382716445
50 2      -0.077394432271      -2.257569233580      -2.328369239057      -0.321497053678       0.724066148288       0.117358838875
51 2       0.188445056887      -2.281188739223      -2.259115763372       0.279435940841      -0.358489897540      -0.064028489584
52 2      -3.183480850625      -1.847567067498      -1.720613439536       0.315715158523       0.509441131886      -0.808396198832
53 2      -2.146472524317      -3.253000711241      -1.735040030590      -0.989892138945       0.180108428464      -0.634602934300
54 2      -3.184002371220      -1.847397341253      -1.674796458070       0.356913064315       0.591994201017      -0.777236398769
55 2      -1.905550391606      -1.746344933047      -3.441753851193      -0.400447399207       0.282135416119      -0.137283576915
56 2      -3.033571637034      -3.036078083771      -2.354212996184      -0.150679058878      -1.387279158086      -1.602986811626
57 2      -1.273175272312      -3.560140412023      -1.877785018405      -0.452725217064       1.109003155781       0.283407201737
58 2      -2.176709734780      -1.788072730847      -3.973480028475       0.452196493342       0.498180395728       0.539722043027
59 2      -1.883029305142      -1.755646261456      -3.512302981472      -0.449673688747       0.448120193678      -0.101920737924
60 2      -2.025138244552       0.382880343877      -2.500911514225      -0.412917584054       0.497518444069       0.206202067985
61 2      -0.083544759153      -1.759056125593      -1.586471371972      -0.025985365418       0.136295214880       0.965220256064
62 2      -1.611099746956      -0.352836917146      -1.663141054883      -0.040265070077       1.042463837922       0.151937491366
63 2      -0.293342354613      -1.599802157170      -1.564119791976       0.156012435918       0.118799384910      -1.135038315865
64 2      -1.632322510671      -0.197862460298      -1.608888952607      -0.009116702351       1.057507593722       0.003024944996
65 1       2.320113030778       1.871697515628       1.704814725349       0.311300091686       0.136632303497       0.013044374525
66 1       1.948168083867       1.936292102835       2.418980079370       0.263891979132       0.232544854155       0.235989453211
67 1      -0.130717573391       1.170084883718       1.841152769592      -0.291132737597      -0.216346543421      -0.566839162819
68 1       0.904581476215       1.155650964335      -0.400515954666       0.350530965647      -0.058932960296       0.027658237908
69 1       1.465949909868       0.407961617153       1.406172545355      -0.147884257666       0.365480702487      -0.227773147582
70 1       1.312691617173       0.068007241704       1.105674228661      -0.147553705634       0.369273061671      -0.252017108266
71 1       1.861882240614       1.899025968993       1.282162785601      -0.471741953369      -0.119871685236       0.315407297268
72 1       0.865266749316       1.189859127532       0.950032832454      -0.084819980551       0.052973075008       0.024909941027
73 1       2.025569560173       1.792720392954       1.440823688107       0.426208696414      -0.424371363292      -0.314304909467
74 1       0.625634198532       1.237278073459       0.999613756479       0.231802404759       0.111816874046      -0.086770128815
75 1       1.522660160704       0.426236346767       1.440997896950      -0.173041016174       0.474927167386      -0.215605974282
76 1       2.021048107337       1.829943476313       1.646921292911      -0.572964830408       0.535661281495      -0.645412908732
77 1       0.644219044035       1.352884807697       0.310187240100      -0.024379011470      -0.247136297082      -0.014856868543
78 1      -0.412098393467       1.257390603216       1.342858169135       0.058611319870      -0.252949622336       0.442422679350
79 1       1.500035727947       0.497126127123       1.490549130667       0.184446270538       0.413154698802       0.130165075528
80 1       2.002874079616       1.926612728806       1.999520620748       0.606463283555       0.601582704608       0.721390178423
81 1       2.026093839206       1.821160929630       1.448735380169       0.425766805348      -0.436092282973      -0.318018060213
82 1       2.107150499263       1.887544467946       1.588028697896       0.249161540155      -0.336982216649      -0.259117036448
83 1       2.154552390930       1.964093548068       1.814202427368      -0.332055630309       0.119656489843      -0.291982409353
84 1       1.968488865176       1.735601224212       2.656303325514      -0.036722375704       0.314573943835      -0.475305329154
85 1       0.440200461193       1.110056114385       0.618322001529      -0.045863567981      -0.377780688176       0.094578136006
86 1       0.957052347552       1.200757963894      -0.289651762931       0.359362925070      -0.022564427060      -0.006175339345
87 1       2.150207877618       2.195534646571       2.243540654008      -0.284340326884       0.312061614029      -0.234815338016
88 1       1.951858220104       1.785471571274       2.671969799796      -0.042914109519       0.328858990812      -0.564330541971
89 1       1.656818932821       2.049038784573       2.506267519471      -0.013865109519       0.345811741855       0.569525410288
90 1       2.345245515524       1.840000998847       1.692101816694       0.308130646027       0.124765314189       0.008896677502
91 1       0.721019642098       1.150059130730       0.932744126526      -0.098005877024       0.068324026923      -0.003689170322
92 1       1.821223664434       1.876888351418       2.087034624693      -0.162131763081      -0.370236046960       0.414224121940
93 1      -0.486966297342       1.237272360168       1.346002936664       0.111655855971      -0.133674320392       0.390141171022
94 1       1.108776440882       1.074774362143       0.042803801325      -0.330429855457      -0.308193240742      -0.217896503267
95 1       2.002695188377       1.959693927863       1.988852585063       0.628974910071       0.601995603551       0.741981038785
96 1       1.472764197023       0.517904399543       1.120645285023       0.116240920940       0.187076975655       0.069402432023
97 1       0.436412540012       1.413941643343       1.001932786545       0.141933082123       0.254605998923       0.203798698793
98 1       1.796606622555       1.835075447219       1.722211485630       0.501508389671       0.629662928431       0.561552051487
99 1       2.134267748619       1.715571020721       1.510155376305       0.512369899498      -0.751766243692      -0.377075210804
100 1       1.036494578278      -0.091796115696       1.787804086030      -0.168657879738      -0.544506090967      -0.330028893646
101 1       2.019888415263       2.241408720472       1.903523527850      -0.300136702628       0.314493572139      -0.478250296511
102 1       1.181898122148       0.623177618712       0.518395974077      -0.307937283648       0.226486554516      -0.106571669889
103 1       0.969867026226       0.566480214995       1.103060342720      -0.009741740244      -0.159562701802      -0.019104475676
104 1       1.954991294625       2.051305801790       1.792091415630      -0.226343054369      -0.227115678151       0.098993489184
105 1       1.337273207197       0.593220640333       1.052147016093       0.161697090244      -0.087821877466       0.087821122634
106 1       1.609684103178       2.184717602095       1.805907233023       0.310508247101      -0.086095526232      -0.307321371572
107 1       1.096647367130       1.246939234346       0.121755513804      -0.321285687194       0.055610181175      -0.383512778181
108 1       0.488038777177       1.359484722828       1.869238537692      -0.113428788532       0.150869132667      -0.483544356592
109 1       2.008962976184       1.703440663520       2.539301536925       0.061033175477      -0.403281003500       0.248080836715
110 1       1.878445783043       1.810825944398       2.347311154528      -0.183594337484      -0.122312089912       0.058617505073
111 1       1.160636304269       1.155436825922       0.202992305920       0.306533003953       0.093605173609       0.308920929419
112 1       0.400900113534       1.622498510498       1.463395020650       0.221985077360       0.209746325110       0.446120780964
113 1       1.162152552761       0.491387621956       0.839060120536      -0.098845298667       0.199573538664      -0.380835745906
114 1       1.147506511980       1.190560786716      -0.071059207684       0.250194924359       0.344078832915      -0.189236996772
115 1       1.946640104272       1.924489304130       2.490181998621      -0.108478568111       0.521761537344      -0.343737181322
116 1       1.964038614272       1.989470244281       1.441950238034      -0.530889687595       0.337624921185      -0.180083768853
117 1       1.691392710105       1.809380428806       1.736821535408       0.561356068248      -0.393142461931      -0.355942924357
118 1       1.989103209824       2.171743822672       1.738739924223       0.160023380194      -0.243101830080      -0.363939902048
119 1       1.036408884667      -0.197273174784       1.780918779071       0.252977620031       0.586684042955      -0.331195707525
120 1       1.350457485561       0.654831355784       0.548797050873      -0.028780297666       0.060523916440      -0.379434619288
121 1       2.028792858317       2.094910132961       1.598358414613       0.523464854524       0.308611720488       0.280680188004
122 1       2.148794862025       1.725819155079       2.570060687569      -0.063607583785       0.615087721824       0.336814883298
123 1       0.346256285983       1.460644578849       0.904335440423      -0.100389081779      -0.059495299079       0.224314266003
124 1       0.563543097208       1.624400410345       1.895400273249      -0.112021530622      -0.040880571630       0.302844776667
125 1       1.744882552131       2.046081846582       1.567597585727      -0.557104393836      -0.621456934034       0.530743182783
126 1       1.327485808647      -0.348427714147       1.358123946535       0.124039741970      -0.409618254657       0.149688148221
127 1       1.920133719937       2.050198333490       2.548617854277       0.222625892026       0.216982813015       0.186630126612
128 1       2.090469734136       1.919646916954       1.831108883426       0.424979523993       0.195194947801       0.107833831981
129 1       1.279832901645      -0.526243681096       1.464362150877      -0.120217589052       0.450492506427       0.110097998209
130 1       1.813251773389       2.028111031678       2.447116514456       0.101246230496       0.220546258509       0.554940265976
131 1       0.401021154058       1.457961915563       0.655523623826       0.002106867841      -0.436750725662       0.000219201435
132 1       2.158118152211       2.135973373221       2.071738471162       0.191472340514      -0.118242899523      -0.010147956689
133 1       1.755846341532       2.043595789686       2.134618439349      -0.388868002769       0.393084733529      -0.239793523209
134 1       1.767276939269       2.087604900815       2.055070303060      -0.594835048415       0.494216418096      -0.834334414306
135 1       1.792653509461       1.861779416227       2.201095394749      -0.212978631623      -0.369262109680       0.445970400478
136 1       1.384351110135       0.597693098105       0.502439802593      -0.058375636308       0.181113184519       0.452069085793
137 1       0.001558217982       1.296759876782       1.145765637222       0.153704823701      -0.115602007971      -0.240122360049
138 1       2.031098382868       1.995431678123       1.892584752308       0.304431198268      -0.358167223786      -0.377070951431
139 1       2.145708790853       2.098231964033       2.188135549336      -0.232535495169       0.277809971515      -0.050418693841
140 1       1.387797968548       0.080458259958       1.234412040979      -0.165762581168       0.324752021981      -0.225967048257
141 1       1.097182045970       1.124692244810      -0.163268957373      -0.361590351031      -0.240107416126      -0.228645810655
142 1       1.640691616085       2.108874639863       1.397462536018      -0.465971254697      -0.274325442778       0.413335856732
143 1       1.539149225018       0.268264714906       0.903674926989       0.189724108374       0.306355621535       0.143476907066
144 1       2.076735348022       2.010909434417       2.306543493659       0.319806475109       0.498702831831       0.458942780926
145 1       0.480934379320       1.547300933579       2.049231368975       0.187840829882      -0.055063921545      -0.259087057698
146 1       0.356114732197       1.082302999382       1.108437304238       0.055423835493       0.082942464192      -0.039083955641
147 1       2.255239962553       2.208500038938       2.321745898035      -0.302483980688       0.315499160509      -0.251621776192
148 1       0.159433885575       1.358175789758       1.189112086040      -0.082991184561       0.238163181720      -0.215397049680
149 1      -0.420835359271       1.318305354421       1.143793815304      -0.182823200551      -0.133267713966      -0.458730106707
150 1       1.700393934185       1.976461960137       2.479198298905       0.080493456617      -0.380991999001      -0.239854302779
151 1       2.325704339711       2.030857015928       1.829576525868      -0.177759653525       0.040743410520      -0.040773008048
152 1       2.055945441929       2.097596655857       1.726386594410      -0.546680133841       0.596590817033      -0.381643947946
153 1       1.942009583556       1.787818699072       2.309907331097       0.212077439591       0.210100031768       0.284321896069
154 1       1.361707690783       0.756353550532       0.330008340372       0.138121661678       0.113217210947       0.455999374928
155 1       1.220312481736       0.897986618625      -0.352725122774      -0.289383327558      -0.055730484530       0.103595810126
156 1       1.707029420834       1.861909186598       1.456195891410      -0.467867799978      -0.221910410346       0.545726038001
157 1       1.986798785470       1.929411425407       2.204196064865      -0.195343365667      -0.355972136297       0.337841232124
158 1       0.682190595574       1.359628372394       0.422173164767      -0.069784764095      -0.364670544177       0.016566865211
159 1       1.361789690107       0.775862049253       0.608566929586       0.157196641625       0.158984674262       0.174068814763
160 1       1.605329528051       0.549755623319       1.802503148584       0.159304407769       0.242159734205       0.289953036515
