ITEM: TIMESTEP
0
ITEM: NUMBER OF ATOMS
160
ITEM: BOX BOUNDS pp pp pp
0.0000000000000000e+00 8.3282925250000002e+00
0.0000000000000000e+00 8.3282925250000002e+00
0.0000000000000000e+00 2.4984877573999999e+01
ITEM: ATOMS id type x y z fx fy fz
1 2       1.208180000000       5.173070000000      21.967040000000      -0.333734275609       0.056788541671      -0.041228464570
2 2       5.171100000000       0.839870000000      13.600430000000      -0.003175110174       0.065773167311      -0.188928820920
3 2       7.114870000000       7.363780000000       7.349930000000      -0.050462356419      -0.201170175798      -0.184404528427
4 2       7.248430000000       7.092360000000      15.687780000000      -0.097531073135       0.478121872136       0.157386581689
5 2       5.194750000000       5.225310000000       0.979010000000       0.259261385572      -0.027895100638      -0.148654222009
6 2       3.013100000000       3.186830000000       7.173330000000       0.225497486081      -0.060352408545       0.138343173714
7 2       0.944780000000       1.044080000000       1.090660000000       0.003913255634       0.018399859643      -0.066514827114
8 2       5.141640000000       1.029460000000       5.213870000000       0.011161378904       0.020278677125      -0.168079832691
9 2       3.165100000000       2.947120000000      15.562680000000      -0.083737936420       0.052027285607      -0.011721039175
10 2       5.354380000000       1.109600000000      21.795230000000       0.055763079083      -0.071666043754       0.216212878906
11 2       3.117290000000       7.208360000000      11.453660000000      -0.024999583012       0.118644338536      -0.143464999346
12 2       7.378940000000       3.178820000000      19.705030000000      -0.122444197609      -0.413540746396       0.012690606643
13 2       1.012750000000       5.067680000000      13.414460000000      -0.043552788499       0.278931706770       0.130957754495
14 2       7.288010000000       3.202920000000       3.187550000000      -0.295362848600      -0.004233590522       0.131298981624
15 2       5.071570000000       5.309850000000       9.317520000000       0.200593423402      -0.030153413613       0.193830329483
16 2       7.315740000000       7.397970000000      23.974300000000       0.063391453621      -0.083712308235       0.005470755446
17 2       3.178980000000       7.410940000000      19.828120000000       0.007000141968      -0.095855540224      -0.031466394087
18 2       0.907200000000       1.072530000000       9.467270000000       0.042111725474      -0.246555159523      -0.140125346043
19 2       3.211180000000       7.384820000000       3.071790000000      -0.043426074408      -0.034586471498       0.017705067050
20 2       1.169200000000       1.032020000000      17.726020000000      -0.123421519606      -0.109300000378      -0.092338484806
21 2       3.905190000000       0.191440000000       8.342030000000       0.081425313714      -0.015141815775       0.029249090299
22 2       6.107990000000       6.078370000000      12.468000000000       0.296530618185       0.062583924355      -0.188325509811
23 2       2.150480000000       2.127530000000      20.836510000000      -0.014900881279      -0.176621422355       0.023552778528
24 2       6.370790000000       6.259010000000      20.784690000000      -0.008397389397       0.061857240666       0.353585944395
25 2       1.950510000000       6.360170000000       8.237370000000      -0.108244671827      -0.116270703319      -0.031450768462
26 2       8.282310000000       2.050810000000       6.207430000000      -0.221903278981      -0.123046334642       0.073699518627
27 2       1.982750000000       2.082600000000       4.201370000000       0.099745196816      -0.064600849107      -0.183975883828
28 2       0.046090000000       2.001790000000      14.532280000000      -0.007677015031      -0.019376888126       0.391764532636
29 2       0.167040000000       6.170710000000      18.694760000000      -0.024322705451       0.326243429187       0.244159664343
30 2       6.238950000000       0.056440000000       2.091740000000       0.008632213571      -0.018195056337      -0.046054573199
31 2       6.065900000000       0.075550000000      10.473620000000       0.415411974158      -0.175197474761       0.182787947319
32 2       4.156810000000       2.186650000000      18.690780000000       0.276207294381      -0.036060506950      -0.222972695204
33 2       6.374670000000       8.285250000000      18.742820000000      -0.252864142382       0.428839317034      -0.208234120733
34 2       6.319840000000       2.046020000000      16.641450000000      -0.079478396846      -0.523984392802       0.260432802719
35 2       0.159050000000       2.060230000000      22.956020000000      -0.108852763988       0.218377024877       0.114423552190
36 2       2.021570000000       8.114150000000      14.669980000000      -0.138507980172       0.091994909523       0.113378564093
37 2       3.993180000000       5.993570000000      14.582650000000       0.148700326570       0.057142098177       0.082523148815
38 2       6.222060000000       4.185510000000       6.267520000000      -0.339782745314       0.169367717505      -0.286131930576
39 2       4.184650000000       6.352310000000      22.942190000000       0.318523609519       0.367775601785      -0.106237604722
40 2       0.097230000000       4.165690000000      16.655780000000       0.131781274058      -0.296953887522      -0.077385890117
41 2       2.077600000000       4.217020000000       2.081050000000      -0.009606356336      -0.006769127067       0.009343866737
42 2       4.118570000000       4.279700000000      20.769320000000       0.216640653946       0.000228615868      -0.291048106620
43 2       4.123800000000       8.134680000000      16.719480000000       0.420380257231       0.175545546683       0.137707397537
44 2       6.263590000000       4.219080000000      22.861290000000       0.404597455689      -0.109904595291       0.302634006608
45 2       8.264160000000       6.169810000000      10.392060000000      -0.155080814075       0.298938188382       0.223971980674
46 2       8.311560000000       8.262340000000      12.515170000000      -0.169505290856      -0.192965112843      -0.190884253926
47 2       0.035400000000       4.251130000000       0.037160000000      -0.403263452375      -0.051869681695      -0.296960476500
48 2       6.187470000000       4.040900000000      14.547170000000       0.082291029203       0.047940570689      -0.309569520697
49 2       4.110830000000       4.172560000000       4.133040000000       0.392005025494       0.104762666376       0.231010006579
50 2       2.117500000000       2.023740000000      12.417390000000       0.194901061284      -0.150417564540       0.232583022955
51 2       2.083350000000       4.086570000000      10.423250000000       0.100377659205       0.269374617990      -0.148755215491
52 2       0.041530000000       6.392890000000       2.185550000000       0.058192922010      -0.154613295446      -0.050564301815
53 2       0.202400000000       8.289000000000      20.922680000000      -0.208605099879      -0.105410653884       0.030048571726
54 2       4.101290000000       2.032350000000       1.972260000000      -0.061403391723       0.169787706364       0.045587357206
55 2       6.168500000000       2.047830000000      24.938980000000       0.033575858078       0.242130844011      -0.171472466911
56 2       8.301420000000       4.120140000000       8.325730000000      -0.003591516362       0.034519236820      -0.020094967481
57 2       6.053780000000       2.156000000000       8.430300000000       0.129436527639       0.104782842787      -0.025128625694
58 2       3.997140000000       6.387740000000       6.185960000000       0.095305585266      -0.397518979358      -0.191670439496
59 2       6.304050000000       6.383770000000       4.216400000000      -0.001456093635      -0.323994593366       0.139699450097
60 2       2.168300000000       6.348550000000      24.950870000000      -0.196324528770       0.091276237587       0.154455930770
61 2       5.139370000000       3.106540000000      11.494210000000      -0.275451259638       0.001633360981       0.084626119707
62 2       3.155880000000       1.071420000000      23.923500000000       0.104868922200      -0.425549871219       0.023045307220
63 2       3.157100000000       5.139340000000      17.692750000000      -0.170943932374      -0.049442848192      -0.026012354142
64 2       0.982500000000       7.352470000000       5.198610000000      -0.022347149831       0.267216336182      -0.042139706602
65 1       2.107610000000       2.136450000000       2.111280000000       0.170383476958       0.171872894088       0.163088744638
66 1       6.109800000000       6.199770000000       6.211200000000       0.095124658655      -0.020128685660      -0.105171082654
67 1       4.214470000000       8.271150000000       6.386160000000       0.063850747179       0.108698171974      -0.065969981469
68 1       4.282120000000       0.126180000000       2.057220000000       0.000769407970       0.025541329777       0.085999034384
69 1       8.214870000000       6.304570000000       4.103530000000       0.302931326090      -0.156532983198       0.255825055445
70 1       0.025380000000       2.150220000000       4.243150000000       0.176073718901       0.067327416781       0.233970891279
71 1       6.170300000000       4.149680000000       8.298150000000       0.274767683938      -0.186158254811      -0.129155150532
72 1       1.916320000000       4.402360000000       0.213010000000      -0.016574688810      -0.015464382383       0.042044854686
73 1       8.321520000000       4.325060000000       2.062080000000       0.273282296125       0.064529137030      -0.143151892469
74 1       8.094150000000       4.004860000000       6.459300000000      -0.014884977106      -0.037002305694       0.091541777732
75 1       4.255660000000       2.117330000000       0.049140000000      -0.324410574150       0.199684684048      -0.207079322827
76 1       3.993130000000       6.352430000000       8.198140000000      -0.094613029430       0.069854376786      -0.072468615786
77 1       2.101050000000       0.083000000000       4.145220000000       0.059010713029       0.136020175067      -0.004523671986
78 1       6.122180000000       8.279470000000       4.068060000000      -0.086838279576       0.157834849839       0.022992336712
79 1       2.083180000000       6.334740000000       6.311170000000      -0.248125562878      -0.119512755426      -0.268763639957
80 1       6.186410000000       2.115760000000       2.019380000000      -0.071650788429      -0.109998938530      -0.099892869775
81 1       4.157290000000       4.101760000000       2.100520000000      -0.272971111825      -0.061415030014       0.163433978907
82 1       4.198590000000       4.305000000000       6.141270000000      -0.188612482796      -0.140032444216       0.057776580594
83 1       8.127740000000       2.090290000000       8.307810000000       0.003592242171       0.288393646398      -0.240624317905
84 1       0.045060000000       6.267250000000       0.091170000000       0.247592481682      -0.108810361405      -0.092848587935
85 1       8.186230000000       0.067970000000       6.264420000000       0.085915609596       0.123635761779      -0.056326905606
86 1       8.195610000000       8.302630000000       2.103600000000       0.017581607875      -0.006214073372      -0.091068658310
87 1       4.216870000000       6.199480000000       4.202570000000      -0.145576670156       0.074538036940       0.077897100169
88 1       4.098670000000       2.156950000000       4.080930000000      -0.217136931918       0.052519420592       0.062821699983
89 1       6.216180000000       2.155950000000       6.318190000000       0.203724901836       0.034612701397      -0.019142560144
90 1       2.042400000000       6.294640000000       2.050540000000      -0.166491326811      -0.165909263214      -0.126494031166
91 1       2.231780000000       4.029820000000       3.948100000000       0.031868566593       0.050854067280      -0.026345980000
92 1       6.123810000000       4.295360000000       4.245620000000       0.090574581860       0.019350379616      -0.000854953672
93 1       6.334910000000       0.149290000000       0.111690000000       0.088667565551      -0.074919096135       0.014381917313
94 1       2.014610000000       8.281440000000       8.462840000000       0.135296732270       0.218135315690       0.113702452849
95 1       6.287900000000       6.317040000000       2.146130000000       0.075563493824       0.087505747738       0.121001731285
96 1       1.911370000000       2.135560000000       6.139020000000      -0.036982033678      -0.060928566720       0.052702274692
97 1       2.023010000000       2.133790000000      10.475510000000       0.097499991386       0.041515566569       0.069898328911
98 1       6.164660000000       6.088650000000      14.502940000000      -0.153582272686      -0.210415147303      -0.175391796455
99 1       4.083920000000       8.137260000000      14.712620000000      -0.009283545291      -0.181082434955       0.101052090742
100 1       4.180600000000       8.173970000000      10.286340000000      -0.154758609302      -0.020587938874       0.087692699944
101 1       8.185000000000       6.250490000000      12.403450000000       0.046735568008      -0.130983472526      -0.022701162487
102 1       0.160230000000       1.805570000000      12.666170000000      -0.012736032756      -0.032109432111      -0.097886070966
103 1       6.492350000000       3.906680000000      16.433850000000       0.005675248066       0.088195782970       0.026114080654
104 1       2.012320000000       4.290510000000       8.343250000000      -0.267047138080      -0.029138457338       0.206062709321
105 1       0.117130000000       4.300270000000      10.192830000000      -0.009996131917      -0.016659766975      -0.040412762478
106 1       8.324410000000       3.996590000000      14.592240000000      -0.173234350689      -0.049994077152       0.152447199588
107 1       4.130180000000       2.087690000000       8.193100000000      -0.242527296958      -0.137113620606      -0.162986538234
108 1       4.125170000000       6.239450000000      16.540490000000       0.044353028271      -0.095907058800       0.279846384408
109 1       2.011000000000       8.282710000000      12.557560000000      -0.017898188669       0.163132305664      -0.121197169445
110 1       6.293650000000       8.163160000000      12.451270000000      -0.021117609764       0.141026184439      -0.043568956335
111 1       2.084120000000       6.208010000000      14.436190000000       0.107944464309      -0.305096779910      -0.183807074591
112 1       6.110730000000       1.993880000000      10.349060000000       0.166354048219       0.252910739747       0.211287613150
113 1       4.078960000000       4.216960000000      10.416560000000      -0.135353214141      -0.106936373490       0.147392685507
114 1       4.251040000000       4.098960000000      14.635700000000      -0.003985267199       0.141959023604       0.068351481192
115 1       0.023830000000       2.022760000000      16.555650000000      -0.027448254948       0.246593223589       0.103757821329
116 1       8.278250000000       6.250060000000       8.357750000000       0.169036008046      -0.275692737360       0.132302989158
117 1       0.031140000000       8.220060000000      14.574890000000       0.171856569364       0.140912694840      -0.162464063077
118 1       8.143660000000       8.196540000000      10.503810000000       0.176261146837       0.156436329042      -0.022620130232
119 1       4.224810000000       6.299080000000      12.634130000000      -0.074797971463       0.040418566504       0.025717695369
120 1       4.121330000000       1.933310000000      12.539800000000      -0.124767208360      -0.008529383655      -0.062649969361
121 1       6.334510000000       1.956310000000      14.605940000000       0.132427757315       0.287241975769       0.051169909965
122 1       1.973290000000       6.166530000000      10.338760000000      -0.047579325421      -0.153356635192       0.034022321733
123 1       2.055280000000       3.984350000000      12.367380000000       0.023680303537      -0.033947658952      -0.056907727969
124 1       6.199480000000       4.168410000000      12.604970000000       0.046160904097      -0.251331912328      -0.264590764567
125 1       6.066550000000       0.107370000000       8.463110000000      -0.080551426048       0.118254509286       0.086451457056
126 1       2.211580000000       0.032260000000      16.577390000000      -0.117701573344       0.049472880812       0.068108509995
127 1       6.251920000000       6.288830000000      10.456940000000       0.022372399550      -0.130059732616       0.134721023759
128 1       2.073780000000       1.860140000000      14.493390000000      -0.268776548969       0.116079159750      -0.222450262793
129 1       2.255780000000       2.007340000000      18.854740000000      -0.043602117298      -0.104227403264       0.052664648965
130 1       6.297360000000       6.268570000000      22.812150000000      -0.198692773570      -0.060831611624       0.065188677839
131 1       4.300970000000       0.029220000000      22.862670000000       0.034282351852      -0.169717890289       0.079720713580
132 1       4.347100000000       0.074280000000      18.685010000000      -0.092943997576      -0.282725202155       0.063965980431
133 1       0.103950000000       6.301340000000      20.838820000000      -0.085977545384       0.109190516346      -0.247766724439
134 1       0.103690000000       2.062100000000      20.883060000000       0.200221166172       0.082432766362       0.112418161883
135 1       6.356280000000       4.135660000000      24.897030000000      -0.111098383045      -0.017921530088       0.000582649954
136 1       2.090290000000       4.013540000000      16.635610000000      -0.053828299397       0.022920048578       0.062954968077
137 1       0.081240000000       4.216560000000      18.611620000000      -0.048177184806       0.201306407479      -0.200951095364
138 1       8.286720000000       4.125350000000      22.998220000000       0.126167870118       0.084236580849      -0.009497148310
139 1       4.312070000000       1.922640000000      16.720100000000      -0.027897281488       0.262796247718      -0.074819273761
140 1       4.131710000000       6.273490000000      24.896560000000      -0.195912241947      -0.097399493417      -0.190255296117
141 1       2.093090000000       0.145880000000      20.840060000000       0.055405365468       0.023079729226      -0.069290959152
142 1       6.447670000000       0.004920000000      20.750370000000      -0.009839974898      -0.280596190292      -0.143348355499
143 1       2.231720000000       6.294560000000      23.012200000000      -0.034853072754       0.013387312512      -0.014817089814
144 1       6.260950000000       1.983700000000      18.663240000000      -0.047211419670       0.108133620254      -0.024352007425
145 1       4.215750000000       4.100450000000      18.837410000000       0.102374676060       0.247155426906      -0.341335865157
146 1       4.409090000000       4.420670000000      22.661750000000      -0.096043554768      -0.025346037551       0.046385502507
147 1       8.259200000000       2.227220000000      24.945620000000       0.153763407740      -0.041307289948      -0.071659265391
148 1       0.051440000000       6.109460000000      16.737510000000       0.135450177903      -0.073289831502       0.136064200500
149 1       8.267590000000       0.152770000000      22.820300000000      -0.081191324847      -0.061189193436       0.085976432660
150 1       0.058930000000       8.290480000000      18.827630000000       0.005039683100      -0.242278129265      -0.155549337026
151 1       4.334230000000       6.313020000000      20.844400000000       0.083829339722      -0.248896453714       0.116506021239
152 1       4.225540000000       2.187630000000      20.724220000000      -0.160174200602       0.227824054036      -0.051639655613
153 1       6.379300000000       2.224950000000      22.949560000000      -0.066984825842       0.011653605204       0.059245771630
154 1       2.140120000000       6.281420000000      18.775180000000       0.015841428117       0.092301422084       0.042296615469
155 1       2.202840000000       4.079400000000      20.873630000000       0.105595473121      -0.066690808834       0.061885252506
156 1       6.321450000000       4.262430000000      20.839910000000      -0.282975826324       0.075215135897       0.143035068261
157 1       6.211750000000       0.008920000000      16.726640000000       0.065361602875      -0.019625179327       0.034706951236
158 1       2.055910000000       0.013930000000       0.019580000000      -0.059829873975      -0.076340517702      -0.002746574759
159 1       6.555870000000       6.410320000000      18.917370000000      -0.007162892668      -0.039252706568      -0.036936931804
160 1       2.053780000000       2.085200000000      22.816430000000       0.168279935131       0.074558432137       0.159136882019
