ITEM: TIMESTEP
0
ITEM: NUMBER OF ATOMS
20
ITEM: BOX BOUNDS xy xz yz pp pp pp
-1.3763598392300000e+00 1.2335842641690000e+01 0.0000000000000000e+00
0.0000000000000000e+00 3.0548637240000001e+00 -1.3763598392300000e+00
0.0000000000000000e+00 5.6555203896090003e+00 0.0000000000000000e+00
ITEM: ATOMS id type c_pe_atom
1 2      -4.704738697777
2 2      -4.704663846313
3 2      -8.100389922171
4 2      -8.100389256889
5 2      -4.704811124192
6 2      -4.704738315803
7 2      -8.100356558814
8 2      -8.100303599521
9 1      -4.475555359232
10 1      -4.475556357234
11 1      -8.002583000483
12 1      -8.002667647574
13 1      -4.536039570686
14 1      -4.535968042273
15 1      -4.475645937169
16 1      -4.475593985132
17 1      -8.002578386790
18 1      -8.002604852720
19 1      -4.536028532127
20 1      -4.535955123183
