ITEM: TIMESTEP
0
ITEM: NUMBER OF ATOMS
160
ITEM: BOX BOUNDS pp pp pp
0.0000000000000000e+00 8.4545245520000005e+00
0.0000000000000000e+00 8.4545245520000005e+00
0.0000000000000000e+00 2.5363573656000000e+01
ITEM: ATOMS id type c_pe_atom
1 2      -4.763398209752
2 2      -4.584425680677
3 2      -4.581901877480
4 2      -4.729226969190
5 2      -4.718071925611
6 2      -4.784071969673
7 2      -4.636358058865
8 2      -4.579215730864
9 2      -4.608901345833
10 2      -4.583529905853
11 2      -4.564551179553
12 2      -4.716549636038
13 2      -4.766416041573
14 2      -4.707973300044
15 2      -4.579046789794
16 2      -4.595198812372
17 2      -4.650380252857
18 2      -4.775487610627
19 2      -4.635372214744
20 2      -4.595130878088
21 2      -5.097309249085
22 2      -5.048102354818
23 2      -5.234972432009
24 2      -4.901893980265
25 2      -5.043318443816
26 2      -5.337207537799
27 2      -5.311483179604
28 2      -4.863966722721
29 2      -5.296556642085
30 2      -5.164897819928
31 2      -5.039216586937
32 2      -5.027422507087
33 2      -5.003551406178
34 2      -4.963206325287
35 2      -4.999027474613
36 2      -4.927431932252
37 2      -5.167280896453
38 2      -4.982000972945
39 2      -5.302168136208
40 2      -5.317685226278
41 2      -5.036203123250
42 2      -5.124893340495
43 2      -5.043987012526
44 2      -5.000507288279
45 2      -4.969386791319
46 2      -4.947201517772
47 2      -5.020463852429
48 2      -5.174302152290
49 2      -5.018258556016
50 2      -5.319806992192
51 2      -5.335775852018
52 2      -5.004351857559
53 2      -4.917158850052
54 2      -5.006368426841
55 2      -5.001768346825
56 2      -4.986939076729
57 2      -5.043058426557
58 2      -5.036732786147
59 2      -4.995760779531
60 2      -5.305744372241
61 2      -4.958521556800
62 2      -4.915081845203
63 2      -4.917381128403
64 2      -4.934713655467
65 1     -10.911637207838
66 1     -10.972180693287
67 1     -10.885372568716
68 1     -10.917119311118
69 1     -10.889801185468
70 1     -10.755701283255
71 1     -10.896699286548
72 1     -10.596675336790
73 1     -10.852534631761
74 1     -10.588350970986
75 1     -10.857918416567
76 1     -10.835698831679
77 1     -11.051923914690
78 1     -10.866140849936
79 1     -10.866200778727
80 1     -10.791397723766
81 1     -10.845403223411
82 1     -10.940901223930
83 1     -10.833761159738
84 1     -10.873253423075
85 1     -11.080455441156
86 1     -10.921676415796
87 1     -10.946619540723
88 1     -10.860231868691
89 1     -10.857969051435
90 1     -10.908183204629
91 1     -10.597558982788
92 1     -10.951559656747
93 1     -10.864658240323
94 1     -10.923810337579
95 1     -10.788942982955
96 1     -10.763964029002
97 1     -10.761180977467
98 1     -10.758515503306
99 1     -10.857522375757
100 1     -10.866076064331
101 1     -10.937503020370
102 1     -10.586601314030
103 1     -10.551560951676
104 1     -10.854083093442
105 1     -10.594004838457
106 1     -10.864134763956
107 1     -10.905717834714
108 1     -10.822861842397
109 1     -10.882791117105
110 1     -10.988793807105
111 1     -10.930108887516
112 1     -10.860302015313
113 1     -11.065069857832
114 1     -10.928306434234
115 1     -10.895313693120
116 1     -10.881407276328
117 1     -10.897712841149
118 1     -10.939209991092
119 1     -10.887563542438
120 1     -11.063626174180
121 1     -10.874975163757
122 1     -10.868071716765
123 1     -10.770727049899
124 1     -10.866676169897
125 1     -10.843769889288
126 1     -10.953631500750
127 1     -10.959852805850
128 1     -10.932462360775
129 1     -10.870635730428
130 1     -10.887941748258
131 1     -11.046389318504
132 1     -10.958047421828
133 1     -10.881947664771
134 1     -10.792020792475
135 1     -10.941107471999
136 1     -11.035208112634
137 1     -10.769669590290
138 1     -10.930817885911
139 1     -10.969617383718
140 1     -10.766306138919
141 1     -10.909238362547
142 1     -10.922224076684
143 1     -10.784345036059
144 1     -10.917267727908
145 1     -10.872714568622
146 1     -10.546996429087
147 1     -10.945214050545
148 1     -10.791428638971
149 1     -10.985330298616
150 1     -10.869195398073
151 1     -10.890168908841
152 1     -10.820220033132
153 1     -10.985556934450
154 1     -11.057344543052
155 1     -10.824677382469
156 1     -10.833131606898
157 1     -10.936377330885
158 1     -11.050983899179
159 1     -10.596335084834
160 1     -10.799687804572
