ITEM: TIMESTEP
0
ITEM: NUMBER OF ATOMS
80
ITEM: BOX BOUNDS pp pp pp
0.0000000000000000e+00 9.2603694420000000e+00
0.0000000000000000e+00 9.2603694420000000e+00
0.0000000000000000e+00 9.2603694420000000e+00
ITEM: ATOMS id type c_pe_atom
1 2      -5.026241079867
2 2      -4.936867026542
3 2      -4.936865364437
4 2      -4.936860953278
5 2      -4.936865364436
6 2      -4.936868959071
7 2      -4.936860953278
8 2      -5.026241079867
9 2      -5.026239650628
10 2      -5.026241079867
11 2      -4.936868959071
12 2      -4.936860953278
13 2      -4.936867026542
14 2      -4.936868959071
15 2      -4.936867026542
16 2      -4.936865364437
17 2      -5.026242509361
18 2      -4.936864134140
19 2      -4.936866266520
20 2      -4.936870207431
21 2      -4.936866266520
22 2      -4.936862671994
23 2      -4.936870207431
24 2      -5.026242509361
25 2      -5.026243939121
26 2      -5.026242509361
27 2      -4.936862671994
28 2      -4.936870207430
29 2      -4.936864134140
30 2      -4.936862671994
31 2      -4.936864134140
32 2      -4.936866266520
33 1     -10.832578228148
34 1     -10.832579119176
35 1     -10.832590214420
36 1     -10.832566550889
37 1     -10.832586893271
38 1     -10.832571371652
39 1     -10.832590214420
40 1     -10.832586893271
41 1     -10.832571371652
42 1     -10.832568216993
43 1     -10.832590214420
44 1     -10.832578228148
45 1     -10.832559183681
46 1     -10.832586893271
47 1     -10.832579119176
48 1     -10.832566550889
49 1     -10.832568216993
50 1     -10.832559183681
51 1     -10.832568216993
52 1     -10.832579119176
53 1     -10.832578228148
54 1     -10.832559183681
55 1     -10.832566550889
56 1     -10.832571371652
57 1     -10.832563651410
58 1     -10.832572513047
59 1     -10.832552837785
60 1     -10.832582042319
61 1     -10.832557487367
62 1     -10.832567468862
63 1     -10.832552837785
64 1     -10.832557487367
65 1     -10.832567468862
66 1     -10.832577874958
67 1     -10.832552837785
68 1     -10.832563651410
69 1     -10.832588235661
70 1     -10.832557487367
71 1     -10.832572513047
72 1     -10.832582042319
73 1     -10.832577874958
74 1     -10.832588235661
75 1     -10.832577874958
76 1     -10.832572513047
77 1     -10.832563651410
78 1     -10.832588235661
79 1     -10.832582042319
80 1     -10.832567468862
