80
Config_type=bulk_delta_phase Weight=1.0 Lattice="9.260369442 0.000000000 0.000000000 0.000000000 9.260369442 0.000000000 0.000000000 0.000000000 9.260369442" Energy=-678.96876260 Virial="48.32262 0.00007 0.00005 0.00007 48.32263 0.00002 0.00005 0.00002 48.32265" pbc="T T T" Properties=species:S:1:pos:R:3:forces:R:3
Ga	      6.94528      2.31509      2.31509        -0.000156      0.000099      0.000047
Ga	      6.94528      4.30271      4.63018        -0.000098      0.000983      0.000119
Ga	      0.00000      6.94528      0.32747        -0.000008     -0.000119     -0.000863
Ga	      0.00000      2.31509      4.30271        -0.000008      0.000079      0.000965
Ga	      0.32747      0.00000      6.94528        -0.000869     -0.000013     -0.000115
Ga	      0.32747      4.63018      2.31509        -0.000899      0.000116      0.000063
Ga	      2.31509      4.30271      0.00000         0.000079      0.000965     -0.000004
Ga	      2.31509      6.94528      2.31509         0.000035     -0.000160      0.000098
Ga	      2.31509      2.31509      2.31509         0.000078      0.000084      0.000082
Ga	      2.31509      2.31509      6.94528         0.000099      0.000043     -0.000156
Ga	      2.31509      0.32747      4.63018         0.000072     -0.000898      0.000115
Ga	      4.30271      0.00000      2.31509         0.000969     -0.000004      0.000081
Ga	      4.30271      4.63018      6.94528         0.000997      0.000115     -0.000098
Ga	      4.63018      2.31509      0.32747         0.000120      0.000064     -0.000902
Ga	      4.63018      6.94528      4.30271         0.000124     -0.000098      0.000990
Ga	      6.94528      0.32747      0.00000        -0.000118     -0.000863     -0.000010
Ga	      2.31509      6.94528      6.94528         0.000130     -0.000145     -0.000083
Ga	      2.31509      8.93290      0.00000         0.000087      0.000837     -0.000015
Ga	      4.63018      2.31509      4.95766         0.000114      0.000105     -0.000929
Ga	      4.63018      6.94528      8.93290         0.000109     -0.000135      0.000864
Ga	      4.95766      4.63018      2.31509        -0.000928      0.000104      0.000113
Ga	      4.95766      0.00000      6.94528        -0.000888     -0.000012     -0.000122
Ga	      6.94528      8.93290      4.63018        -0.000140      0.000858      0.000113
Ga	      6.94528      2.31509      6.94528        -0.000091      0.000134     -0.000146
Ga	      6.94528      6.94528      6.94528        -0.000090     -0.000097     -0.000105
Ga	      6.94528      6.94528      2.31509        -0.000147     -0.000083      0.000136
Ga	      6.94528      4.95766      0.00000        -0.000113     -0.000876     -0.000014
Ga	      8.93290      4.63018      6.94528         0.000862      0.000106     -0.000143
Ga	      8.93290      0.00000      2.31509         0.000833     -0.000018      0.000090
Ga	      0.00000      6.94528      4.95766        -0.000018     -0.000111     -0.000885
Ga	      0.00000      2.31509      8.93290        -0.000020      0.000085      0.000839
Ga	      2.31509      4.95766      4.63018         0.000102     -0.000927      0.000106
O	      8.18193      5.64219      1.45906         0.000701     -0.003891      0.002662
O	      8.18193      3.61818      3.17113         0.000713      0.003838     -0.002811
O	      8.24837      1.45906      1.07844         0.003868      0.002668     -0.000699
O	      8.24837      3.17113      5.70862         0.003869     -0.002837     -0.000635
O	      1.01200      3.17113      1.07844        -0.003860     -0.002825     -0.000720
O	      1.01200      1.45906      5.70862        -0.003828      0.002673     -0.000594
O	      1.07844      8.24837      1.45906        -0.000671      0.003853      0.002641
O	      1.07844      1.01200      3.17113        -0.000695     -0.003838     -0.002782
O	      1.45906      5.70862      1.01200         0.002662     -0.000552     -0.003843
O	      1.45906      3.55175      3.61818         0.002679      0.000519      0.003868
O	      1.45906      1.07844      8.24837         0.002659     -0.000667      0.003882
O	      1.45906      8.18193      5.64219         0.002690      0.000716     -0.003926
O	      3.17113      3.55175      5.64219        -0.002845      0.000581     -0.003901
O	      3.17113      1.07844      1.01200        -0.002809     -0.000708     -0.003858
O	      3.17113      8.18193      3.61818        -0.002832      0.000723      0.003864
O	      3.17113      5.70862      8.24837        -0.002808     -0.000594      0.003852
O	      3.55175      3.61818      1.45906         0.000536      0.003846      0.002676
O	      3.55175      5.64219      3.17113         0.000571     -0.003898     -0.002837
O	      3.61818      1.45906      3.55175         0.003837      0.002673      0.000542
O	      3.61818      3.17113      8.18193         0.003860     -0.002823      0.000712
O	      5.64219      1.45906      8.18193        -0.003914      0.002672      0.000734
O	      5.64219      3.17113      3.55175        -0.003899     -0.002845      0.000579
O	      5.70862      8.24837      3.17113        -0.000605      0.003846     -0.002833
O	      5.70862      1.01200      1.45906        -0.000564     -0.003830      0.002655
O	      3.55175      1.01200      6.08924         0.000546     -0.003854      0.002781
O	      3.55175      8.24837      7.80131         0.000535      0.003875     -0.002654
O	      3.61818      6.08924      5.70862         0.003845      0.002784     -0.000578
O	      3.61818      7.80131      1.07844         0.003832     -0.002643     -0.000668
O	      5.64219      7.80131      5.70862        -0.003908     -0.002687     -0.000562
O	      5.64219      6.08924      1.07844        -0.003882      0.002782     -0.000714
O	      5.70862      3.61818      6.08924        -0.000593      0.003863      0.002780
O	      5.70862      5.64219      7.80131        -0.000569     -0.003895     -0.002662
O	      6.08924      1.07844      5.64219         0.002771     -0.000699     -0.003895
O	      6.08924      8.18193      8.24837         0.002778      0.000715      0.003865
O	      6.08924      5.70862      3.61818         0.002791     -0.000575      0.003844
O	      6.08924      3.55175      1.01200         0.002799      0.000565     -0.003865
O	      7.80131      8.18193      1.01200        -0.002638      0.000689     -0.003855
O	      7.80131      5.70862      5.64219        -0.002683     -0.000553     -0.003914
O	      7.80131      3.55175      8.24837        -0.002664      0.000531      0.003920
O	      7.80131      1.07844      3.61818        -0.002628     -0.000632      0.003839
O	      8.18193      8.24837      6.08924         0.000724      0.003842      0.002781
O	      8.18193      1.01200      7.80131         0.000702     -0.003837     -0.002611
O	      8.24837      6.08924      8.18193         0.003847      0.002796      0.000746
O	      8.24837      7.80131      3.55175         0.003892     -0.002684      0.000535
O	      1.01200      6.08924      3.55175        -0.003851      0.002802      0.000571
O	      1.01200      7.80131      8.18193        -0.003841     -0.002646      0.000717
O	      1.07844      3.61818      7.80131        -0.000649      0.003811     -0.002628
O	      1.07844      5.64219      6.08924        -0.000685     -0.003872      0.002765
