ITEM: TIMESTEP
0
ITEM: NUMBER OF ATOMS
80
ITEM: BOX BOUNDS pp pp pp
0.0000000000000000e+00 9.5615196680000007e+00
0.0000000000000000e+00 9.5615196680000007e+00
0.0000000000000000e+00 9.5615196680000007e+00
ITEM: ATOMS id type x y z fx fy fz
1 2       7.171140000000       2.390380000000       2.390380000000      -0.000001152638      -0.000000192789      -0.000000934454
2 2       7.171140000000       4.427770000000       4.780760000000      -0.000000828312      -0.031857792021       0.000000289234
3 2       0.000000000000       7.171140000000       0.352990000000       0.000001817108      -0.000000158165       0.031860452691
4 2       0.000000000000       2.390380000000       4.427770000000       0.000001928369      -0.000000610858      -0.031857901746
5 2       0.352990000000       0.000000000000       7.171140000000       0.031860452691       0.000001817108      -0.000000158165
6 2       0.352990000000       4.780760000000       2.390380000000       0.031860721480       0.000000400494       0.000000059292
7 2       2.390380000000       4.427770000000       0.000000000000      -0.000000610858      -0.031857901746       0.000001928369
8 2       2.390380000000       7.171140000000       2.390380000000      -0.000000934454      -0.000001152638      -0.000000192789
9 2       2.390380000000       2.390380000000       2.390380000000       0.000000129460       0.000000129460       0.000000129460
10 2       2.390380000000       2.390380000000       7.171140000000      -0.000000192789      -0.000000934454      -0.000001152638
11 2       2.390380000000       0.352990000000       4.780760000000       0.000000059292       0.031860721480       0.000000400494
12 2       4.427770000000       0.000000000000       2.390380000000      -0.031857901746       0.000001928369      -0.000000610858
13 2       4.427770000000       4.780760000000       7.171140000000      -0.031857792021       0.000000289234      -0.000000828312
14 2       4.780760000000       2.390380000000       0.352990000000       0.000000400494       0.000000059292       0.031860721480
15 2       4.780760000000       7.171140000000       4.427770000000       0.000000289234      -0.000000828312      -0.031857792021
16 2       7.171140000000       0.352990000000       0.000000000000      -0.000000158165       0.031860452691       0.000001817108
17 2       2.390380000000       7.171140000000       7.171140000000       0.000000613738      -0.000000864801      -0.000000380523
18 2       2.390380000000       9.208530000000       0.000000000000       0.000000727287      -0.031859468475       0.000001047106
19 2       4.780760000000       2.390380000000       5.133750000000      -0.000000480762       0.000000057136       0.031858071315
20 2       4.780760000000       7.171140000000       9.208530000000      -0.000000369500      -0.000000826160      -0.031859358748
21 2       5.133750000000       4.780760000000       2.390380000000       0.031858071315      -0.000000480762       0.000000057136
22 2       5.133750000000       0.000000000000       7.171140000000       0.031857802520       0.000001158364      -0.000001496306
23 2       7.171140000000       9.208530000000       4.780760000000      -0.000000826160      -0.031859358748      -0.000000369500
24 2       7.171140000000       2.390380000000       7.171140000000      -0.000000380523       0.000000613738      -0.000000864801
25 2       7.171140000000       7.171140000000       7.171140000000      -0.000000410973      -0.000000410973      -0.000000410973
26 2       7.171140000000       7.171140000000       2.390380000000      -0.000000864801      -0.000000380523       0.000000613738
27 2       7.171140000000       5.133750000000       0.000000000000      -0.000001496306       0.031857802520       0.000001158364
28 2       9.208530000000       4.780760000000       7.171140000000      -0.031859358748      -0.000000369500      -0.000000826160
29 2       9.208530000000       0.000000000000       2.390380000000      -0.031859468475       0.000001047106       0.000000727287
30 2       0.000000000000       7.171140000000       5.133750000000       0.000001158364      -0.000001496306       0.031857802520
31 2       0.000000000000       2.390380000000       9.208530000000       0.000001047106       0.000000727287      -0.031859468475
32 2       2.390380000000       5.133750000000       4.780760000000       0.000000057136       0.031858071315      -0.000000480762
33 1       8.485030000000       5.864530000000       1.519450000000      -0.056088847416       0.011645454626       0.034118181980
34 1       8.485030000000       3.696990000000       3.261310000000      -0.056088695631      -0.011645395402      -0.034116733750
35 1       8.477750000000       1.519450000000       1.076490000000      -0.011647109235       0.034117348866       0.056089004590
36 1       8.477750000000       3.261310000000       5.857250000000      -0.011646861106      -0.034116237818       0.056086131845
37 1       1.083770000000       3.261310000000       1.076490000000       0.011646727670      -0.034116089239       0.056088169563
38 1       1.083770000000       1.519450000000       5.857250000000       0.011645951607       0.034117609421       0.056085841657
39 1       1.076490000000       8.477750000000       1.519450000000       0.056089004590      -0.011647109235       0.034117348866
40 1       1.076490000000       1.083770000000       3.261310000000       0.056088169563       0.011646727670      -0.034116089239
41 1       1.519450000000       5.857250000000       1.083770000000       0.034117609421       0.056085841657       0.011645951607
42 1       1.519450000000       3.704270000000       3.696990000000       0.034117975736      -0.056085781662      -0.011644807980
43 1       1.519450000000       1.076490000000       8.477750000000       0.034117348866       0.056089004590      -0.011647109235
44 1       1.519450000000       8.485030000000       5.864530000000       0.034118181980      -0.056088847416       0.011645454626
45 1       3.261310000000       3.704270000000       5.864530000000      -0.034116792741      -0.056085388611       0.011645395144
46 1       3.261310000000       1.076490000000       1.083770000000      -0.034116089239       0.056088169563       0.011646727670
47 1       3.261310000000       8.485030000000       3.696990000000      -0.034116733750      -0.056088695631      -0.011645395402
48 1       3.261310000000       5.857250000000       8.477750000000      -0.034116237818       0.056086131845      -0.011646861106
49 1       3.704270000000       3.696990000000       1.519450000000      -0.056085781662      -0.011644807980       0.034117975736
50 1       3.704270000000       5.864530000000       3.261310000000      -0.056085388611       0.011645395144      -0.034116792741
51 1       3.696990000000       1.519450000000       3.704270000000      -0.011644807980       0.034117975736      -0.056085781662
52 1       3.696990000000       3.261310000000       8.485030000000      -0.011645395402      -0.034116733750      -0.056088695631
53 1       5.864530000000       1.519450000000       8.485030000000       0.011645454626       0.034118181980      -0.056088847416
54 1       5.864530000000       3.261310000000       3.704270000000       0.011645395144      -0.034116792741      -0.056085388611
55 1       5.857250000000       8.477750000000       3.261310000000       0.056086131845      -0.011646861106      -0.034116237818
56 1       5.857250000000       1.083770000000       1.519450000000       0.056085841657       0.011645951607       0.034117609421
57 1       3.704270000000       1.083770000000       6.300210000000      -0.056085503222       0.011646200534       0.034116322228
58 1       3.704270000000       8.477750000000       8.042070000000      -0.056086505042      -0.011646442094      -0.034117446501
59 1       3.696990000000       6.300210000000       5.857250000000      -0.011644969418       0.034116819979       0.056085704188
60 1       3.696990000000       8.042070000000       1.076490000000      -0.011645077533      -0.034117795672       0.056088743723
61 1       5.864530000000       8.042070000000       5.857250000000       0.011644888635      -0.034118132854       0.056086022766
62 1       5.864530000000       6.300210000000       1.076490000000       0.011645804703       0.034116748030       0.056088183867
63 1       5.857250000000       3.696990000000       6.300210000000       0.056085704188      -0.011644969418       0.034116819979
64 1       5.857250000000       5.864530000000       8.042070000000       0.056086022766       0.011644888635      -0.034118132854
65 1       6.300210000000       1.076490000000       5.864530000000       0.034116748030       0.056088183867       0.011645804703
66 1       6.300210000000       8.485030000000       8.477750000000       0.034116339869      -0.056089252213      -0.011647169522
67 1       6.300210000000       5.857250000000       3.696990000000       0.034116819979       0.056085704188      -0.011644969418
68 1       6.300210000000       3.704270000000       1.083770000000       0.034116322228      -0.056085503222       0.011646200534
69 1       8.042070000000       8.485030000000       1.083770000000      -0.034117576120      -0.056089128830       0.011646120019
70 1       8.042070000000       5.857250000000       5.864530000000      -0.034118132854       0.056086022766       0.011644888635
71 1       8.042070000000       3.704270000000       8.477750000000      -0.034117446501      -0.056086505042      -0.011646442094
72 1       8.042070000000       1.076490000000       3.696990000000      -0.034117795672       0.056088743723      -0.011645077533
73 1       8.485030000000       8.477750000000       6.300210000000      -0.056089252213      -0.011647169522       0.034116339869
74 1       8.485030000000       1.083770000000       8.042070000000      -0.056089128830       0.011646120019      -0.034117576120
75 1       8.477750000000       6.300210000000       8.485030000000      -0.011647169522       0.034116339869      -0.056089252213
76 1       8.477750000000       8.042070000000       3.704270000000      -0.011646442094      -0.034117446501      -0.056086505042
77 1       1.083770000000       6.300210000000       3.704270000000       0.011646200534       0.034116322228      -0.056085503222
78 1       1.083770000000       8.042070000000       8.485030000000       0.011646120019      -0.034117576120      -0.056089128830
79 1       1.076490000000       3.696990000000       8.042070000000       0.056088743723      -0.011645077533      -0.034117795672
80 1       1.076490000000       5.864530000000       6.300210000000       0.056088183867       0.011645804703       0.034116748030
