ITEM: TIMESTEP
0
ITEM: NUMBER OF ATOMS
30
ITEM: BOX BOUNDS xy xz yz pp pp pp
-2.4964117820000000e+00 4.9928235839999999e+00 -2.4964117820000000e+00
0.0000000000000000e+00 4.3239124720000000e+00 0.0000000000000000e+00
0.0000000000000000e+00 1.3441038518999999e+01 0.0000000000000000e+00
ITEM: ATOMS id type x y z fx fy fz
1 2       0.000000000000       0.000000000000       1.937380000000      -0.000017663770      -0.000016827259      -0.055039245911
2 2       0.000000006667       2.882610000000       0.302800000000      -0.000001187863      -0.000078307987       0.054996985027
3 2       2.496410003333       1.441300000000       2.542960000000       0.000005186047       0.000102516897       0.055019267685
4 2       0.000000006667       2.882610000000       4.177560000000      -0.000026087807      -0.000063467203      -0.055028619436
5 2       2.496410003333       1.441300000000       6.417720000000       0.000051018742       0.000074861778      -0.054969383048
6 2       0.000000000000       0.000000000000       4.783140000000      -0.000001464460       0.000033527061       0.055047908332
7 2       0.000000006667       2.882610000000       7.023320000000      -0.000015695885      -0.000083187575       0.054960252779
8 2       0.000000000000       0.000000000000       8.657900000000       0.000041548631      -0.000031238963      -0.055055204816
9 2       0.000000006667       2.882610000000      10.898080000000       0.000028324639      -0.000042509725      -0.055043114857
10 2       2.496410003333       1.441300000000       9.263480000000       0.000062089365       0.000086515096       0.055033438483
11 2       0.000000000000       0.000000000000      11.503660000000      -0.000033747016       0.000014682605       0.055067825740
12 2       2.496410003333       1.441300000000      13.138240000000       0.000005964864       0.000097735210      -0.054994839864
13 1       4.236390003030       1.310170000000       3.360260000000      -0.046126316749       0.080102753120       0.000032050526
14 1       1.512860000000       0.000000000000       3.360260000000       0.092350201282      -0.000020105702       0.000028909143
15 1       1.739980006970       3.013740000000       3.360260000000      -0.046158433141      -0.080084834441      -0.000035405773
16 1       3.252840000303       0.131130000000       1.120080000000       0.046289017900      -0.079967052450       0.000113069546
17 1       3.252840006363       2.751480000000       1.120080000000       0.046155065539       0.080001824754       0.000107154492
18 1       0.983560003333       1.441300000000       1.120080000000      -0.092481319066       0.000002308550       0.000091681408
19 1       1.739980006363       2.751480000000       7.840600000000      -0.046071150934       0.079991356726       0.000132870708
20 1       4.009270003333       1.441300000000       7.840600000000       0.092395363171       0.000023727678       0.000069156578
21 1       1.739990000303       0.131130000000       7.840600000000      -0.046377821355      -0.079953342928       0.000144190797
22 1       0.756430003637       1.572440000000       5.600440000000       0.046091476770      -0.080132239778      -0.000139649818
23 1       0.756430009697       4.192780000000       5.600440000000       0.046232218286       0.080013663735      -0.000109895306
24 1      -1.512859993333       2.882610000000       5.600440000000      -0.092367867553       0.000025638048      -0.000081286405
25 1      -0.756429990303       4.192780000000      12.320960000000      -0.046274487414       0.080018293632      -0.000126055248
26 1       1.512850006667       2.882610000000      12.320960000000       0.092496112426       0.000030957807      -0.000100553571
27 1      -0.756429996363       1.572440000000      12.320960000000      -0.046148000160      -0.080134610902      -0.000115716273
28 1      -1.739979993030       3.013740000000      10.080780000000       0.046160014444      -0.080095918801      -0.000042136600
29 1       0.756430003030       1.310170000000      10.080780000000       0.046198272695       0.080092931060       0.000016149745
30 1       3.479970000000       0.000000000000      10.080780000000      -0.092460631630      -0.000009650046       0.000020195936
