ITEM: TIMESTEP
0
ITEM: NUMBER OF ATOMS
40
ITEM: BOX BOUNDS pp pp pp
0.0000000000000000e+00 8.7317141449999998e+00
0.0000000000000000e+00 5.0847512500000001e+00
0.0000000000000000e+00 9.3431907049999996e+00
ITEM: ATOMS id type x y z fx fy fz
1 2       1.371850000000       1.571500000000       8.293270000000       0.067570855323       0.048415629976       0.051894941810
2 2       3.102200000000       4.113870000000       8.293270000000      -0.067505894402       0.048482731267       0.051903915098
3 2       5.747040000000       0.901740000000       7.462100000000      -0.041208797625       0.031573454828      -0.101411854886
4 2       7.458720000000       3.444110000000       7.462110000000       0.041162463313       0.031752105926      -0.101629461845
5 2       4.697750000000       3.443620000000       5.571560000000       0.098201184585      -0.091695206047       0.173232267961
6 2       1.466260000000       3.492450000000       5.695130000000       0.068782339955      -0.190403791937       0.189552935386
7 2       3.007780000000       0.950080000000       5.695120000000      -0.068695896132      -0.190494535754       0.189555775857
8 2       8.508020000000       0.901240000000       5.571560000000      -0.098304809093      -0.091709443394       0.173275859918
9 2       1.381120000000       1.640380000000       2.790550000000      -0.040447915734      -0.033674161492      -0.101353328275
10 2       3.092940000000       4.182760000000       2.790550000000       0.040413226592      -0.033858847697      -0.101329931742
11 2       5.737160000000       0.971330000000       3.621680000000       0.065312759850      -0.047271284932       0.053336710745
12 2       7.468610000000       3.513710000000       3.621680000000      -0.065426531402      -0.047340419417       0.053332426636
13 2       4.142640000000       1.641440000000       0.900180000000      -0.097587894830       0.093973557170       0.173174773617
14 2       5.831860000000       4.134790000000       1.023250000000       0.072356133794       0.192901857886       0.191304080437
15 2       7.373910000000       1.592420000000       1.023250000000      -0.072409395341       0.192824411293       0.191293447420
16 2       0.331410000000       4.183820000000       0.900190000000       0.097630793730       0.093915681436       0.173126565068
17 1       7.293550000000       1.771160000000       4.408570000000       0.037603543922      -0.038401301771       0.043132382790
18 1       0.033010000000       0.770700000000       0.032030000000       0.040877778401      -0.097166399140      -0.027088286595
19 1       7.327360000000       0.100430000000       6.904640000000      -0.055056982873       0.045040874405      -0.049658101019
20 1       7.258580000000       4.949260000000       2.125880000000       0.098348047102      -0.007822799415      -0.127303452377
21 1       5.912210000000       4.313530000000       4.408570000000      -0.037468171057      -0.038302100589       0.043044293884
22 1       7.398150000000       3.327170000000       9.328460000000      -0.038644383471      -0.111946180557      -0.093502440940
23 1       5.878400000000       2.642810000000       6.904640000000       0.055054554883       0.045000370986      -0.049625944245
24 1       5.947190000000       2.406880000000       2.125880000000      -0.098320780219      -0.007727490323      -0.127321342213
25 1       1.441480000000       1.757410000000       4.657010000000       0.038701184561       0.111421860647      -0.094724806531
26 1       2.928140000000       0.771600000000       9.080320000000       0.037468503746       0.038418965405       0.043572723751
27 1       1.582340000000       0.134840000000       6.798110000000      -0.100221300443       0.005677454146      -0.123777002816
28 1       1.512720000000       4.983960000000       2.233120000000       0.053298039121      -0.042171677553      -0.049169136499
29 1       0.075590000000       4.314530000000       4.703660000000      -0.040995959716       0.094642504037      -0.026603843741
30 1       1.545910000000       3.313980000000       9.080320000000      -0.037561535373       0.038403476293       0.043621186426
31 1       0.157350000000       2.423210000000       6.855230000000      -0.143608448463       0.036840043055      -0.062515180820
32 1       8.682360000000       2.661240000000       2.183870000000       0.141928941813      -0.038318394310      -0.061874323532
33 1       4.398460000000       1.772160000000       4.703660000000       0.041006579898       0.094581725727      -0.026588571509
34 1       5.807610000000       0.784790000000       9.328470000000       0.038685184901      -0.111894419175      -0.093817980586
35 1       4.316690000000       4.965580000000       6.855230000000       0.143716628320       0.036910757501      -0.062501624331
36 1       4.523410000000       0.118860000000       2.183870000000      -0.141878324903      -0.038283751199      -0.061855018027
37 1       3.032570000000       4.299790000000       4.657010000000      -0.038715442790       0.111372196702      -0.094705858108
38 1       4.441040000000       3.313080000000       0.032030000000      -0.040867167401      -0.097265412556      -0.027065095809
39 1       2.891700000000       2.677210000000       6.798120000000       0.100144969624       0.005670711048      -0.123795788475
40 1       2.961340000000       2.441580000000       2.233120000000      -0.053338082167      -0.042072752476      -0.049135911883
