ITEM: TIMESTEP
0
ITEM: NUMBER OF ATOMS
30
ITEM: BOX BOUNDS xy xz yz pp pp pp
-2.5166666539999998e+00 5.0333333089999996e+00 -2.5166666539999998e+00
0.0000000000000000e+00 4.3589949260000003e+00 0.0000000000000000e+00
0.0000000000000000e+00 1.3550093598000000e+01 0.0000000000000000e+00
ITEM: ATOMS id type x y z fx fy fz
1 2       0.000000000000       0.000000000000       1.953100000000       0.000012493402       0.000027358851      -0.010677285283
2 2       0.000000000000       2.906000000000       0.305250000000       0.000001764048      -0.000072596659       0.010648856573
3 2       2.516670000000       1.453000000000       2.563590000000      -0.000091920935      -0.000025361715       0.010671127785
4 2       0.000000000000       2.906000000000       4.211450000000      -0.000012703094      -0.000070289498      -0.010692820827
5 2       2.516670000000       1.453000000000       6.469790000000      -0.000085122400       0.000018904995      -0.010557465291
6 2       0.000000000000       0.000000000000       4.821950000000      -0.000016131704       0.000035299401       0.010650703249
7 2       0.000000000000       2.906000000000       7.080300000000       0.000019735094      -0.000046316637       0.010672536109
8 2       0.000000000000       0.000000000000       8.728150000000       0.000017693525       0.000003181241      -0.010717003974
9 2       0.000000000000       2.906000000000      10.986500000000       0.000003025132      -0.000065388278      -0.010704805892
10 2       2.516670000000       1.453000000000       9.338640000000      -0.000045564162      -0.000028341037       0.010633605381
11 2       0.000000000000       0.000000000000      11.596990000000      -0.000020909817       0.000056748410       0.010706882975
12 2       2.516670000000       1.453000000000      13.244840000000      -0.000088415830      -0.000002749840      -0.010663890254
13 1       4.270760000000       1.320800000000       3.387520000000       0.012837098863      -0.021977936850       0.000094674010
14 1       1.525130000000       0.000000000000       3.387520000000      -0.025446534472       0.000017651816       0.000039818615
15 1       1.754100000000       3.038190000000       3.387520000000       0.012707272499       0.022060576228       0.000073049271
16 1       3.279230000000       0.132190000000       1.129170000000      -0.012668068110       0.022146105740       0.000066166544
17 1       3.279230000000       2.773800000000       1.129170000000      -0.012707593023      -0.022033314968       0.000038325617
18 1       0.991540000000       1.453000000000       1.129170000000       0.025374483320      -0.000047052205       0.000047419274
19 1       1.754100000000       2.773800000000       7.904220000000       0.012769776595      -0.022034373780       0.000035963607
20 1       4.041800000000       1.453000000000       7.904220000000      -0.025493933502      -0.000058479307       0.000043789821
21 1       1.754100000000       0.132190000000       7.904220000000       0.012714329384       0.022160534417       0.000047849818
22 1       0.762560000000       1.585200000000       5.645880000000      -0.012709703584       0.021963004561      -0.000121750057
23 1       0.762560000000       4.226800000000       5.645880000000      -0.012606266248      -0.022064771874      -0.000150467046
24 1      -1.525130000000       2.906000000000       5.645880000000       0.025417049596       0.000024783870      -0.000125807407
25 1      -0.762570000000       4.226800000000      12.420920000000       0.012759179903      -0.022034223473      -0.000016145776
26 1       1.525130000000       2.906000000000      12.420920000000      -0.025467043282      -0.000009128855      -0.000033847755
27 1      -0.762570000000       1.585200000000      12.420920000000       0.012827639375       0.021960150469      -0.000079281730
28 1       3.279230000000       3.038190000000      10.162570000000      -0.012689431546       0.022066169635       0.000026157533
29 1       0.762570000000       1.320800000000      10.162570000000      -0.012791152468      -0.021988057877       0.000042883578
30 1       3.508200000000       0.000000000000      10.162570000000       0.025478953443       0.000017913219       0.000000761533
