ITEM: TIMESTEP
0
ITEM: NUMBER OF ATOMS
80
ITEM: BOX BOUNDS pp pp pp
0.0000000000000000e+00 9.5803415570000006e+00
0.0000000000000000e+00 9.5803415570000006e+00
0.0000000000000000e+00 9.5803415570000006e+00
ITEM: ATOMS id type x y z fx fy fz
1 2       7.185260000000       2.395090000000       2.395090000000      -0.000058355082      -0.000064587921      -0.000086109988
2 2       7.185260000000       4.434890000000       4.790170000000      -0.000044537302      -0.037985263058       0.000022956384
3 2       0.000000000000       7.185260000000       0.355280000000       0.000015964209      -0.000047771054       0.038042042662
4 2       0.000000000000       2.395090000000       4.434890000000       0.000060634950      -0.000090066920      -0.037984763083
5 2       0.355280000000       0.000000000000       7.185260000000       0.038042042662       0.000015964209      -0.000047771054
6 2       0.355280000000       4.790170000000       2.395090000000       0.038040602862       0.000067627617      -0.000093300937
7 2       2.395090000000       4.434890000000       0.000000000000      -0.000090066920      -0.037984763083       0.000060634950
8 2       2.395090000000       7.185260000000       2.395090000000      -0.000086109988      -0.000058355082      -0.000064587921
9 2       2.395090000000       2.395090000000       2.395090000000      -0.000039049330      -0.000039049330      -0.000039049330
10 2       2.395090000000       2.395090000000       7.185260000000      -0.000064587921      -0.000086109988      -0.000058355082
11 2       2.395090000000       0.355280000000       4.790170000000      -0.000093300937       0.038040602862       0.000067627617
12 2       4.434890000000       0.000000000000       2.395090000000      -0.037984763083       0.000060634950      -0.000090066920
13 2       4.434890000000       4.790170000000       7.185260000000      -0.037985263058       0.000022956384      -0.000044537302
14 2       4.790170000000       2.395090000000       0.355280000000       0.000067627617      -0.000093300937       0.038040602862
15 2       4.790170000000       7.185260000000       4.434890000000       0.000022956384      -0.000044537302      -0.037985263058
16 2       7.185260000000       0.355280000000       0.000000000000      -0.000047771054       0.038042042662       0.000015964209
17 2       2.395090000000       7.185260000000       7.185260000000      -0.000066505419      -0.000061545801      -0.000089001855
18 2       2.395090000000       9.225060000000       0.000000000000      -0.000051938701      -0.037977957781       0.000019371887
19 2       4.790170000000       2.395090000000       5.145450000000       0.000026363826      -0.000048700396       0.038052438319
20 2       4.790170000000       7.185260000000       9.225060000000       0.000071034333      -0.000089137647      -0.037978459557
21 2       5.145450000000       4.790170000000       2.395090000000       0.038052438319       0.000026363826      -0.000048700396
22 2       5.145450000000       0.000000000000       7.185260000000       0.038053879909       0.000064043163      -0.000085899252
23 2       7.185260000000       9.225060000000       4.790170000000      -0.000089137647      -0.037978459557       0.000071034333
24 2       7.185260000000       2.395090000000       7.185260000000      -0.000089001855      -0.000066505419      -0.000061545801
25 2       7.185260000000       7.185260000000       7.185260000000      -0.000036833052      -0.000036833052      -0.000036833052
26 2       7.185260000000       7.185260000000       2.395090000000      -0.000061545801      -0.000089001855      -0.000066505419
27 2       7.185260000000       5.145450000000       0.000000000000      -0.000085899252       0.038053879909       0.000064043163
28 2       9.225060000000       4.790170000000       7.185260000000      -0.037978459557       0.000071034333      -0.000089137647
29 2       9.225060000000       0.000000000000       2.395090000000      -0.037977957781       0.000019371887      -0.000051938701
30 2       0.000000000000       7.185260000000       5.145450000000       0.000064043163      -0.000085899252       0.038053879909
31 2       0.000000000000       2.395090000000       9.225060000000       0.000019371887      -0.000051938701      -0.037977957781
32 2       2.395090000000       5.145450000000       4.790170000000      -0.000048700396       0.038052438319       0.000026363826
33 1       8.504970000000       5.879220000000       1.523950000000      -0.055233445701       0.006513836844       0.031829302092
34 1       8.504970000000       3.701120000000       3.266220000000      -0.055245887522      -0.006487939867      -0.031819536961
35 1       8.491290000000       1.523950000000       1.075370000000      -0.006495966613       0.031841396588       0.055238588533
36 1       8.491290000000       3.266220000000       5.865540000000      -0.006496421426      -0.031824907637       0.055264345877
37 1       1.089050000000       3.266220000000       1.075370000000       0.006522412149      -0.031819998316       0.055255305727
38 1       1.089050000000       1.523950000000       5.865540000000       0.006526793354       0.031835075928       0.055253875988
39 1       1.075370000000       8.491290000000       1.523950000000       0.055238588533      -0.006495966613       0.031841396588
40 1       1.075370000000       1.089050000000       3.266220000000       0.055255305727       0.006522412149      -0.031819998316
41 1       1.523950000000       5.865540000000       1.089050000000       0.031835075928       0.055253875988       0.006526793354
42 1       1.523950000000       3.714800000000       3.701120000000       0.031835885343      -0.055247177575      -0.006491505999
43 1       1.523950000000       1.075370000000       8.491290000000       0.031841396588       0.055238588533      -0.006495966613
44 1       1.523950000000       8.504970000000       5.879220000000       0.031829302092      -0.055233445701       0.006513836844
45 1       3.266220000000       3.714800000000       5.879220000000      -0.031814085918      -0.055261918978       0.006513475839
46 1       3.266220000000       1.075370000000       1.089050000000      -0.031819998316       0.055255305727       0.006522412149
47 1       3.266220000000       8.504970000000       3.701120000000      -0.031819536961      -0.055245887522      -0.006487939867
48 1       3.266220000000       5.865540000000       8.491290000000      -0.031824907637       0.055264345877      -0.006496421426
49 1       3.714800000000       3.701120000000       1.523950000000      -0.055247177575      -0.006491505999       0.031835885343
50 1       3.714800000000       5.879220000000       3.266220000000      -0.055261918978       0.006513475839      -0.031814085918
51 1       3.701120000000       1.523950000000       3.714800000000      -0.006491505999       0.031835885343      -0.055247177575
52 1       3.701120000000       3.266220000000       8.504970000000      -0.006487939867      -0.031819536961      -0.055245887522
53 1       5.879220000000       1.523950000000       8.504970000000       0.006513836844       0.031829302092      -0.055233445701
54 1       5.879220000000       3.266220000000       3.714800000000       0.006513475839      -0.031814085918      -0.055261918978
55 1       5.865540000000       8.491290000000       3.266220000000       0.055264345877      -0.006496421426      -0.031824907637
56 1       5.865540000000       1.089050000000       1.523950000000       0.055253875988       0.006526793354       0.031835075928
57 1       3.714800000000       1.089050000000       6.314120000000      -0.055248823729       0.006510215252       0.031838267699
58 1       3.714800000000       8.491290000000       8.056390000000      -0.055256004052      -0.006483124616      -0.031815905920
59 1       3.701120000000       6.314120000000       5.865540000000      -0.006506003660       0.031844778656       0.055254011850
60 1       3.701120000000       8.056390000000       1.075370000000      -0.006504905580      -0.031817509028       0.055252153472
61 1       5.879220000000       8.056390000000       5.865540000000       0.006531256749      -0.031810784047       0.055265466813
62 1       5.879220000000       6.314120000000       1.075370000000       0.006527514323       0.031839467378       0.055242995486
63 1       5.865540000000       3.701120000000       6.314120000000       0.055254011849      -0.006506003660       0.031844778656
64 1       5.865540000000       5.879220000000       8.056390000000       0.055265466813       0.006531256749      -0.031810784047
65 1       6.314120000000       1.075370000000       5.879220000000       0.031839467378       0.055242995486       0.006527514323
66 1       6.314120000000       8.504970000000       8.491290000000       0.031843314527      -0.055230818152      -0.006480203695
67 1       6.314120000000       5.865540000000       3.701120000000       0.031844778656       0.055254011849      -0.006506003660
68 1       6.314120000000       3.714800000000       1.089050000000       0.031838267699      -0.055248823729       0.006510215252
69 1       8.056390000000       8.504970000000       1.089050000000      -0.031809724731      -0.055244248329       0.006509935598
70 1       8.056390000000       5.865540000000       5.879220000000      -0.031810784047       0.055265466813       0.006531256749
71 1       8.056390000000       3.714800000000       8.491290000000      -0.031815905920      -0.055256004052      -0.006483124616
72 1       8.056390000000       1.075370000000       3.701120000000      -0.031817509028       0.055252153472      -0.006504905580
73 1       8.504970000000       8.491290000000       6.314120000000      -0.055230818152      -0.006480203695       0.031843314527
74 1       8.504970000000       1.089050000000       8.056390000000      -0.055244248329       0.006509935598      -0.031809724731
75 1       8.491290000000       6.314120000000       8.504970000000      -0.006480203695       0.031843314527      -0.055230818152
76 1       8.491290000000       8.056390000000       3.714800000000      -0.006483124616      -0.031815905920      -0.055256004051
77 1       1.089050000000       6.314120000000       3.714800000000       0.006510215252       0.031838267699      -0.055248823729
78 1       1.089050000000       8.056390000000       8.504970000000       0.006509935598      -0.031809724731      -0.055244248329
79 1       1.075370000000       3.701120000000       8.056390000000       0.055252153472      -0.006504905580      -0.031817509028
80 1       1.075370000000       5.879220000000       6.314120000000       0.055242995486       0.006527514323       0.031839467378
