ITEM: TIMESTEP
0
ITEM: NUMBER OF ATOMS
20
ITEM: BOX BOUNDS xy xz yz pp pp pp
-1.3652377397480000e+00 1.2236159064971000e+01 0.0000000000000000e+00
0.0000000000000000e+00 3.0301779560000002e+00 -1.3652377397480000e+00
0.0000000000000000e+00 5.6098192148810000e+00 0.0000000000000000e+00
ITEM: ATOMS id type x y z fx fy fz
1 2       1.520926934622       1.515090000000       1.759575470771       0.086885374155      -0.000012673294      -0.083323626151
2 2       3.231912633057       0.000000000000       3.850242659196      -0.086847936334       0.000012673302       0.083327559371
3 2       0.025947795593       0.000000000000       4.466381102280      -0.006960694928       0.000016456382      -0.033745083820
4 2       4.726891772086       1.515090000000       1.143437027687       0.007038601158      -0.000016455736       0.033764353547
5 2       7.639002888293       0.000000000000       1.759579948498       0.086972803542       0.000012673260      -0.083434468426
6 2       9.349990951366       1.515090000000       3.850237420519      -0.086827185712      -0.000012673280       0.083426241435
7 2       6.144023749263       1.515090000000       4.466385580006      -0.006983063733      -0.000016456385      -0.033812270589
8 2      10.844979806798       0.000000000000       1.143434153650       0.006925299776       0.000016456374       0.033857170111
9 1       5.733826991338       0.000000000000       1.422638991559      -0.104044482061       0.000019850272       0.033744544609
10 1      -0.980977707257       1.515090000000       4.187181503048       0.103782320688      -0.000019850909      -0.033802749779
11 1       1.340517977406       0.000000000000       3.144491097897       0.041065143267       0.000005346764       0.128437045816
12 1       3.412321590273       1.515090000000       2.465327032070      -0.041024181031      -0.000005346738      -0.128443138732
13 1       2.828125276195       1.515090000000       5.000337905877      -0.036312778858      -0.000014004052       0.082415158804
14 1       1.924714291484       0.000000000000       0.609480224090       0.036333415798       0.000014004084      -0.082391151166
15 1      11.851905309648       1.515090000000       1.422633752882      -0.103889093228      -0.000019850961       0.033805777983
16 1       5.137098246414       0.000000000000       4.187185980774       0.103805073838       0.000019850960      -0.033813703956
17 1       7.458593931076       1.515090000000       3.144495575623       0.041108004183      -0.000005346715       0.128400007521
18 1       9.530399908583       0.000000000000       2.465321793394      -0.041020064743       0.000005346696      -0.128401169171
19 1       8.946210946268       0.000000000000       5.000344748243      -0.036333194342       0.000014004036       0.082158461057
20 1       8.042792609794       1.515090000000       0.609474985414       0.036326638564      -0.000014004059      -0.082168958465
