ITEM: TIMESTEP
0
ITEM: NUMBER OF ATOMS
20
ITEM: BOX BOUNDS xy xz yz pp pp pp
-1.4069456134080001e+00 1.2609972478089000e+01 0.0000000000000000e+00
0.0000000000000000e+00 3.1227495840000001e+00 -1.4069456134080001e+00
0.0000000000000000e+00 5.7811986212499997e+00 0.0000000000000000e+00
ITEM: ATOMS id type x y z fx fy fz
1 2       1.551524400910       1.561370000000       1.814807020204      -0.219915009496       0.000065424566      -0.186931166008
2 2       3.346518951985       0.000000000000       3.966386735973       0.219892369339      -0.000065424542       0.186928434776
3 2       0.010546721334       0.000000000000       4.594790973403      -0.023425515358      -0.000062838140      -0.034625181647
4 2       4.887496631562       1.561370000000       1.186402782773       0.023337531430       0.000062839875       0.034612112071
5 2       7.856501932900       0.000000000000       1.814806849457      -0.219838881036      -0.000065424413      -0.186895133772
6 2       9.651506200378       1.561370000000       3.966388929866       0.219833276997       0.000065424405       0.186898230148
7 2       6.315533969726       1.561370000000       4.594793167296      -0.023497768137       0.000062838225      -0.034660887125
8 2      11.192483879955       0.000000000000       1.186404976666       0.023340833771      -0.000062839930       0.034612864522
9 1       5.884005659562       0.000000000000       1.485483072351       0.123617128164      -0.000078208765       0.068489123023
10 1      -0.985974387709       1.561370000000       4.295718035589      -0.123458862368       0.000078206896      -0.068493419857
11 1       1.400799561257       0.000000000000       3.272958829451      -0.056786615676      -0.000026702318       0.011656675069
12 1       3.497243791639       1.561370000000       2.508234926726       0.056732506253       0.000026702450      -0.011659915650
13 1       3.023635105181       1.561370000000       5.147399559770       0.000271919186       0.000065638825      -0.085745386886
14 1       1.874408247715       0.000000000000       0.633794196407      -0.000295570140      -0.000065638664       0.085752485329
15 1      12.188995272594       1.561370000000       1.485475549841       0.123679377418       0.000078208759       0.068538524311
16 1       5.319012860684       0.000000000000       4.295720229481      -0.123512306144      -0.000078207109      -0.068493094470
17 1       7.705777093247       1.561370000000       3.272958658704      -0.056668421818       0.000026702174       0.011630340837
18 1       9.802231040031       0.000000000000       2.508237120618       0.056695458825      -0.000026702216      -0.011665413146
19 1       9.328622353574       0.000000000000       5.147401753662       0.000253607983      -0.000065638737      -0.085773307826
20 1       8.179385779705       1.561370000000       0.633794025660      -0.000255059196       0.000065638657       0.085824116301
