ITEM: TIMESTEP
0
ITEM: NUMBER OF ATOMS
20
ITEM: BOX BOUNDS xy xz yz pp pp pp
-1.3652377397480000e+00 1.2236159064971000e+01 0.0000000000000000e+00
0.0000000000000000e+00 3.0301779560000002e+00 -1.3652377397480000e+00
0.0000000000000000e+00 5.6098192148810000e+00 0.0000000000000000e+00
ITEM: ATOMS id type x y z fx fy fz
1 2       1.520926934622       1.515090000000       1.759575470771       0.021807421854      -0.000010957448       0.010213176087
2 2       3.231912633057       0.000000000000       3.850242659196      -0.021776488719       0.000010957352      -0.010209867923
3 2       0.025947795593       0.000000000000       4.466381102280      -0.050480563510       0.000015762340      -0.062073709367
4 2       4.726891772086       1.515090000000       1.143437027687       0.050556962798      -0.000015761423       0.062100121220
5 2       7.639002888293       0.000000000000       1.759579948498       0.021859090693       0.000010958660       0.010129624729
6 2       9.349990951366       1.515090000000       3.850237420519      -0.021750641577      -0.000010958484      -0.010133902442
7 2       6.144023749263       1.515090000000       4.466385580006      -0.050499975313      -0.000015762560      -0.062157227248
8 2      10.844979806798       0.000000000000       1.143434153650       0.050431595035       0.000015762563       0.062198259666
9 1       5.733826991338       0.000000000000       1.422638991559      -0.035035583410       0.000020075549      -0.008425908641
10 1      -0.980977707257       1.515090000000       4.187181503048       0.034808452312      -0.000020076649       0.008362793605
11 1       1.340517977406       0.000000000000       3.144491097897       0.025645240470       0.000006995710      -0.020000259543
12 1       3.412321590273       1.515090000000       2.465327032070      -0.025610506603      -0.000006996221       0.020000004409
13 1       2.828125276195       1.515090000000       5.000337905877      -0.012275751495      -0.000010059861       0.020457102376
14 1       1.924714291484       0.000000000000       0.609480224090       0.012301644775       0.000010060061      -0.020436972672
15 1      11.851905309648       1.515090000000       1.422633752882      -0.034898285553      -0.000020076949      -0.008362397476
16 1       5.137098246414       0.000000000000       4.187185980774       0.034823955262       0.000020076611       0.008351619658
17 1       7.458593931076       1.515090000000       3.144495575623       0.025687650184      -0.000006995318      -0.020040064915
18 1       9.530399908583       0.000000000000       2.465321793394      -0.025582699894       0.000006996385       0.020040757571
19 1       8.946210946268       0.000000000000       5.000344748243      -0.012297763288       0.000010059408       0.020218763675
20 1       8.042792609794       1.515090000000       0.609474985414       0.012286245978      -0.000010059726      -0.020231912769
