20
Config_type=bulk_beta_phase Weight=1.0 Lattice="11.889144837 0.000000000 -2.893410394 0.000000000 3.030177956 0.000000000 0.000000000 0.000000000 5.773555725" Energy=-170.30451740 Virial="11.41168 0.00000 0.53720 0.00000 12.85921 -0.00000 0.53720 -0.00000 12.93680" pbc="T T T" Properties=species:S:1:pos:R:3:forces:R:3
Ga	      1.89387      1.51509      1.35003         0.020801     -0.000014     -0.014755
Ga	      4.05070      0.00000      2.97682        -0.020771      0.000013      0.014751
Ga	      1.08135      0.00000      4.33358         0.013351      0.000019     -0.044604
Ga	      4.86322      1.51509     -0.00673        -0.013264     -0.000021      0.044615
Ga	      7.83844      0.00000     -0.09667         0.020843      0.000010     -0.014891
Ga	      9.99527      1.51509      1.53011        -0.020705     -0.000012      0.014844
Ga	      7.02592      1.51509      2.88688         0.013341     -0.000019     -0.044684
Ga	     10.80780      0.00000     -1.45344        -0.013390      0.000019      0.044753
O	      5.90762      0.00000      0.02645         0.007846      0.000023     -0.000968
O	      0.03696      1.51509      4.30040        -0.008145     -0.000021      0.000971
O	      2.04606      0.00000      2.73833         0.008396      0.000007      0.002036
O	      3.89851      1.51509      1.58852        -0.008347     -0.000008     -0.002060
O	      3.93032      1.51509      4.18978        -0.002164     -0.000012      0.003956
O	      2.01425      0.00000      0.13707         0.002185      0.000013     -0.003924
O	     11.85219      1.51509     -1.42026         0.008080     -0.000020     -0.000937
O	      5.98153      0.00000      2.85370        -0.008032      0.000021      0.000949
O	      7.99063      1.51509      1.29163         0.008389     -0.000006      0.002030
O	      9.84308      0.00000      0.14181        -0.008350      0.000008     -0.001977
O	      9.87490      0.00000      2.74308        -0.002283      0.000011      0.003651
O	      7.95882      1.51509     -1.30964         0.002218     -0.000010     -0.003757
