80
Config_type=bulk_delta_phase Weight=1.0 Lattice="9.505054001 0.000000000 0.000000000 0.000000000 9.505054001 0.000000000 0.000000000 0.000000000 9.505054001" Energy=-679.87062760 Virial="-27.22278 -0.00009 0.00000 -0.00009 -27.22256 0.00001 0.00000 0.00001 -27.22266" pbc="T T T" Properties=species:S:1:pos:R:3:forces:R:3
Ga	      7.12879      2.37626      2.37626         0.000014      0.000107      0.000124
Ga	      7.12879      4.40931      4.75253        -0.000017     -0.034393     -0.000067
Ga	      0.00000      7.12879      0.34322        -0.000025     -0.000009      0.034292
Ga	      0.00000      2.37626      4.40931        -0.000053      0.000114     -0.034370
Ga	      0.34322      0.00000      7.12879         0.034290     -0.000036     -0.000012
Ga	      0.34322      4.75253      2.37626         0.034290     -0.000091      0.000116
Ga	      2.37626      4.40931      0.00000         0.000113     -0.034366     -0.000049
Ga	      2.37626      7.12879      2.37626         0.000122      0.000009      0.000106
Ga	      2.37626      2.37626      2.37626         0.000069      0.000068      0.000067
Ga	      2.37626      2.37626      7.12879         0.000102      0.000126      0.000011
Ga	      2.37626      0.34322      4.75253         0.000117      0.034288     -0.000094
Ga	      4.40931      0.00000      2.37626        -0.034374     -0.000051      0.000116
Ga	      4.40931      4.75253      7.12879        -0.034383     -0.000069     -0.000019
Ga	      4.75253      2.37626      0.34322        -0.000093      0.000118      0.034300
Ga	      4.75253      7.12879      4.40931        -0.000069     -0.000015     -0.034387
Ga	      7.12879      0.34322      0.00000        -0.000010      0.034292     -0.000032
Ga	      2.37626      7.12879      7.12879         0.000089     -0.000010      0.000013
Ga	      2.37626      9.16183      0.00000         0.000084     -0.034306     -0.000015
Ga	      4.75253      2.37626      5.09575        -0.000042      0.000091      0.034227
Ga	      4.75253      7.12879      9.16183        -0.000065      0.000015     -0.034329
Ga	      5.09575      4.75253      2.37626         0.034226     -0.000048      0.000085
Ga	      5.09575      0.00000      7.12879         0.034236     -0.000039      0.000014
Ga	      7.12879      9.16183      4.75253         0.000015     -0.034326     -0.000064
Ga	      7.12879      2.37626      7.12879         0.000013      0.000096     -0.000017
Ga	      7.12879      7.12879      7.12879        -0.000010     -0.000003     -0.000008
Ga	      7.12879      7.12879      2.37626        -0.000010      0.000014      0.000092
Ga	      7.12879      5.09575      0.00000         0.000015      0.034228     -0.000039
Ga	      9.16183      4.75253      7.12879        -0.034329     -0.000070      0.000020
Ga	      9.16183      0.00000      2.37626        -0.034307     -0.000012      0.000085
Ga	      0.00000      7.12879      5.09575        -0.000033      0.000016      0.034232
Ga	      0.00000      2.37626      9.16183        -0.000013      0.000087     -0.034301
Ga	      2.37626      5.09575      4.75253         0.000087      0.034223     -0.000046
O	      8.42632      5.82178      1.50687         0.004909      0.000076     -0.004261
O	      8.42632      3.68328      3.24566         0.004924     -0.000152      0.004178
O	      8.43580      1.50687      1.07873        -0.000061     -0.004260     -0.004870
O	      8.43580      3.24566      5.83126        -0.000067      0.004188     -0.004884
O	      1.06925      3.24566      1.07873         0.000082      0.004182     -0.004891
O	      1.06925      1.50687      5.83126         0.000084     -0.004258     -0.004874
O	      1.07873      8.43580      1.50687        -0.004879     -0.000041     -0.004249
O	      1.07873      1.06925      3.24566        -0.004895      0.000062      0.004166
O	      1.50687      5.83126      1.06925        -0.004248     -0.004883      0.000079
O	      1.50687      3.67379      3.68328        -0.004252      0.004950     -0.000136
O	      1.50687      1.07873      8.43580        -0.004240     -0.004887     -0.000054
O	      1.50687      8.42632      5.82178        -0.004276      0.004907      0.000075
O	      3.24566      3.67379      5.82178         0.004169      0.004984      0.000076
O	      3.24566      1.07873      1.06925         0.004187     -0.004893      0.000072
O	      3.24566      8.42632      3.68328         0.004183      0.004942     -0.000151
O	      3.24566      5.83126      8.43580         0.004178     -0.004905     -0.000060
O	      3.67379      3.68328      1.50687         0.004962     -0.000149     -0.004269
O	      3.67379      5.82178      3.24566         0.004973      0.000063      0.004178
O	      3.68328      1.50687      3.67379        -0.000146     -0.004272      0.004926
O	      3.68328      3.24566      8.42632        -0.000138      0.004172      0.004946
O	      5.82178      1.50687      8.42632         0.000064     -0.004259      0.004919
O	      5.82178      3.24566      3.67379         0.000079      0.004188      0.004957
O	      5.83126      8.43580      3.24566        -0.004905     -0.000054      0.004177
O	      5.83126      1.06925      1.50687        -0.004900      0.000091     -0.004264
O	      3.67379      1.06925      6.25940         0.004965      0.000059     -0.004250
O	      3.67379      8.43580      7.99818         0.004978     -0.000038      0.004253
O	      3.68328      6.25940      5.83126        -0.000171     -0.004294     -0.004867
O	      3.68328      7.99818      1.07873        -0.000162      0.004289     -0.004865
O	      5.82178      7.99818      5.83126         0.000101      0.004297     -0.004868
O	      5.82178      6.25940      1.07873         0.000100     -0.004296     -0.004875
O	      5.83126      3.68328      6.25940        -0.004860     -0.000169     -0.004273
O	      5.83126      5.82178      7.99818        -0.004876      0.000092      0.004283
O	      6.25940      1.07873      5.82178        -0.004280     -0.004890      0.000112
O	      6.25940      8.42632      8.43580        -0.004282      0.004938     -0.000083
O	      6.25940      5.83126      3.68328        -0.004286     -0.004873     -0.000172
O	      6.25940      3.67379      1.06925        -0.004278      0.004956      0.000070
O	      7.99818      8.42632      1.06925         0.004266      0.004938      0.000092
O	      7.99818      5.83126      5.82178         0.004304     -0.004880      0.000103
O	      7.99818      3.67379      8.43580         0.004251      0.004987     -0.000065
O	      7.99818      1.07873      3.68328         0.004272     -0.004878     -0.000167
O	      8.42632      8.43580      6.25940         0.004937     -0.000081     -0.004290
O	      8.42632      1.06925      7.99818         0.004922      0.000084      0.004255
O	      8.43580      6.25940      8.42632        -0.000074     -0.004294      0.004920
O	      8.43580      7.99818      3.67379        -0.000042      0.004252      0.004984
O	      1.06925      6.25940      3.67379         0.000064     -0.004259      0.004979
O	      1.06925      7.99818      8.42632         0.000092      0.004271      0.004928
O	      1.07873      3.68328      7.99818        -0.004876     -0.000144      0.004256
O	      1.07873      5.82178      6.25940        -0.004898      0.000095     -0.004293
