ITEM: TIMESTEP
0
ITEM: NUMBER OF ATOMS
160
ITEM: BOX BOUNDS pp pp pp
0.0000000000000000e+00 8.5039773939999996e+00
0.0000000000000000e+00 8.5039773939999996e+00
0.0000000000000000e+00 2.5511932182999999e+01
ITEM: ATOMS id type x y z fx fy fz
1 2       1.233330000000       5.279350000000      22.443340000000      -0.219954902822       0.136035616270      -0.052291389879
2 2       5.284990000000       0.859470000000      13.884330000000      -0.114345791716      -0.038729484719      -0.013562264086
3 2       7.274880000000       7.520910000000       7.501100000000      -0.161107099702       0.014224969646      -0.036411566596
4 2       7.403710000000       7.244210000000      16.012860000000      -0.019487412310       0.073510181126      -0.019442080082
5 2       5.308960000000       5.324450000000       0.996910000000       0.216288495662       0.283455342136       0.045406056321
6 2       3.079430000000       3.253180000000       7.316900000000       0.054550445108      -0.090997802295      -0.019443555446
7 2       0.970570000000       1.061500000000       1.097030000000      -0.109595406226       0.109297538912      -0.046126258435
8 2       5.252580000000       1.038620000000       5.323920000000       0.019343968740       0.215422662260       0.004960364637
9 2       3.232950000000       3.017340000000      15.906170000000      -0.026681845845      -0.024528315874       0.066055198480
10 2       5.463730000000       1.138530000000      22.253700000000      -0.081448729519       0.098653288327       0.049178351988
11 2       3.194070000000       7.367640000000      11.694200000000      -0.107346650588      -0.026446518689      -0.008287564485
12 2       7.540840000000       3.251170000000      20.121020000000       0.101767096392      -0.361834835553      -0.010940974540
13 2       1.035730000000       5.177780000000      13.694560000000      -0.032517339000       0.181251948752      -0.057458486042
14 2       7.440250000000       3.276620000000       3.254920000000      -0.226143946125      -0.287962085138      -0.069280858541
15 2       5.177400000000       5.408660000000       9.521500000000      -0.032533394813       0.160650630940       0.029861624457
16 2       7.476320000000       7.561870000000      24.474700000000      -0.053382603533      -0.216553772539       0.018217338276
17 2       3.241580000000       7.565530000000      20.229760000000      -0.034324782093      -0.045083056441       0.008718879752
18 2       0.931440000000       1.091580000000       9.677460000000       0.068375635139      -0.025745728185      -0.005205777338
19 2       3.274760000000       7.539880000000       3.157320000000       0.087406347281      -0.081549310557       0.010582691425
20 2       1.198360000000       1.044340000000      18.095820000000      -0.151552954107       0.053305611785       0.012415119840
21 2       4.001750000000       0.184320000000       8.514850000000       0.188904777202      -0.172422471749       0.003149521832
22 2       6.230160000000       6.215460000000      12.734410000000       0.068304310964      -0.040398275185      -0.050224734653
23 2       2.191590000000       2.154980000000      21.275840000000       0.075016137111       0.041158044941       0.074842953097
24 2       6.509330000000       6.405280000000      21.242210000000       0.039636892907      -0.081377975680       0.054037711027
25 2       1.999010000000       6.509260000000       8.418210000000      -0.034311293322       0.022872051921       0.030666752204
26 2       8.445780000000       2.100430000000       6.337720000000       0.278673217793       0.205059209460      -0.269401041613
27 2       2.026090000000       2.132660000000       4.287580000000      -0.156621574407       0.267812095939       0.074989424079
28 2       0.063870000000       2.047220000000      14.858490000000       0.025443157737       0.084177674827       0.075417617830
29 2       0.158630000000       6.307810000000      19.085790000000      -0.074594681911      -0.135587702057      -0.136759167658
30 2       6.369770000000       0.054810000000       2.135200000000       0.017431460703      -0.027182105757      -0.008707711791
31 2       6.188880000000       0.071950000000      10.690730000000       0.079384501093      -0.066710459662       0.053424182565
32 2       4.227940000000       2.230760000000      19.086800000000       0.138465609113      -0.098820945797      -0.127933572360
33 2       6.511500000000       8.481610000000      19.150130000000       0.093202604573       0.092027790786      -0.088331390845
34 2       6.454710000000       2.068390000000      16.980280000000       0.025849843673      -0.014099881244       0.184003416212
35 2       0.163930000000       2.091480000000      23.446360000000      -0.096207915535       0.125702979553       0.109257858081
36 2       2.074920000000       8.293120000000      14.972060000000      -0.055657371453       0.027807861049      -0.104378900550
37 2       4.069820000000       6.128520000000      14.887920000000       0.161451436372       0.140163000626       0.105594508078
38 2       6.327540000000       4.267740000000       6.415910000000      -0.032388856968      -0.032664180052      -0.165284044279
39 2       4.282890000000       6.475620000000      23.424980000000      -0.116789902967      -0.157682418506       0.214499571658
40 2       0.092250000000       4.249440000000      17.002050000000      -0.113959025475       0.059262691575       0.236439727823
41 2       2.121290000000       4.307750000000       2.125290000000      -0.017902025449      -0.031633743507      -0.010408749001
42 2       4.183270000000       4.379380000000      21.204030000000      -0.018898045718      -0.080964265747       0.021485674892
43 2       4.200800000000       8.312780000000      17.068100000000       0.095154497086       0.109788401554       0.143632187460
44 2       6.422940000000       4.302480000000      23.317550000000       0.045448049235      -0.032910859163       0.115949059509
45 2       8.442480000000       6.323810000000      10.596790000000       0.012263086963       0.032965502896       0.158865928801
46 2       8.492750000000       8.421750000000      12.788420000000       0.041073223161      -0.104798680203      -0.176705259463
47 2       0.014500000000       4.349160000000       0.050670000000      -0.072330069534       0.055116363559      -0.114117621605
48 2       6.303510000000       4.123400000000      14.847310000000       0.143003569124       0.019211556928      -0.042067997938
49 2       4.220110000000       4.250340000000       4.202500000000       0.080653455925      -0.041400789932       0.130639819383
50 2       2.154660000000       2.065950000000      12.689380000000      -0.205419993946       0.276047078586      -0.184513695304
51 2       2.121110000000       4.185400000000      10.650020000000      -0.197473662103      -0.217624279847       0.078429402605
52 2       0.040340000000       6.543860000000       2.229120000000       0.009111442369       0.022841691099      -0.103320703668
53 2       0.206880000000       8.463260000000      21.361590000000      -0.061548883782      -0.099864738159      -0.144293523586
54 2       4.185250000000       2.055030000000       2.018380000000      -0.022997817252       0.009144204998       0.054070961454
55 2       6.301610000000       2.077330000000      25.463370000000       0.109155763770       0.097946098600      -0.093439370170
56 2       8.494230000000       4.191700000000       8.502250000000      -0.115246770687       0.091866204487      -0.022427430018
57 2       6.169760000000       2.193920000000       8.602320000000      -0.031459894014       0.047702151381      -0.099429003565
58 2       4.086420000000       6.524070000000       6.322520000000       0.081783151151      -0.102230012737      -0.100635081869
59 2       6.434190000000       6.528570000000       4.311300000000      -0.084371438743      -0.088756636058       0.074144957955
60 2       2.214540000000       6.479770000000      25.483220000000       0.182706942330      -0.254882722173      -0.106169965741
61 2       5.231970000000       3.163640000000      11.732250000000      -0.081986083782      -0.052851253543       0.003292950772
62 2       3.228190000000       1.077670000000      24.424030000000       0.064212695351      -0.052599334017       0.018704460379
63 2       3.203650000000       5.254860000000      18.061350000000      -0.080053899988       0.056587452895       0.025724605567
64 2       1.003580000000       7.523520000000       5.313500000000      -0.006598570454       0.042056853538       0.005245508107
65 1       2.156230000000       2.166330000000       2.147260000000       0.027122484538       0.096650475368      -0.057899445874
66 1       6.254220000000       6.322140000000       6.339350000000       0.037085018858       0.044177646723       0.032619634154
67 1       4.348640000000       8.423200000000       6.531750000000      -0.022717603973       0.088693799248      -0.016598805045
68 1       4.377950000000       0.130860000000       2.152010000000       0.168742245635      -0.033120805817      -0.019494666521
69 1       8.372170000000       6.505480000000       4.173370000000       0.063228432161      -0.038994739651       0.067572460107
70 1       0.041040000000       2.252810000000       4.346810000000       0.180081443520      -0.002701102066       0.208947555469
71 1       6.272540000000       4.217830000000       8.476140000000       0.291450119592      -0.060839070243       0.083382104397
72 1       1.906790000000       4.532390000000       0.264850000000       0.034820864313       0.195704088571      -0.055420618104
73 1       8.489190000000       4.424670000000       2.116290000000       0.201592641306       0.078939283461       0.009953764704
74 1       8.208750000000       4.054890000000       6.644290000000       0.031977911342      -0.174207560379      -0.047343805623
75 1       4.363570000000       2.093710000000       0.070580000000      -0.078798367536       0.023426324342      -0.027833363370
76 1       4.077390000000       6.468260000000       8.367680000000       0.009270558201       0.140303190132      -0.063363498105
77 1       2.140450000000       0.077690000000       4.239010000000       0.015312447362      -0.068760264173      -0.033889872485
78 1       6.222850000000       8.439430000000       4.149050000000       0.003351269218       0.076032390459      -0.029139447843
79 1       2.143750000000       6.534880000000       6.466450000000      -0.052148028868      -0.002380094629      -0.034013258003
80 1       6.319140000000       2.145600000000       2.064120000000       0.050100457322       0.077821916241       0.068508353385
81 1       4.253330000000       4.181080000000       2.132800000000      -0.204001344448      -0.111196246423       0.008917336191
82 1       4.285520000000       4.394430000000       6.256750000000      -0.157735838413       0.030185401623       0.075151807820
83 1       8.308500000000       2.133110000000       8.501090000000      -0.081247144278       0.052493848267      -0.009245822802
84 1       0.039340000000       6.401920000000       0.079480000000       0.132415143767       0.050703733018      -0.021047032263
85 1       8.364280000000       0.066630000000       6.399970000000       0.023933853998      -0.042116027321       0.009517049225
86 1       8.363770000000       8.472230000000       2.099020000000      -0.184335712168       0.031746580989       0.031032243248
87 1       4.299330000000       6.322550000000       4.307470000000      -0.089387089574       0.096854534253      -0.016700953620
88 1       4.187680000000       2.198520000000       4.179100000000      -0.071397163013      -0.074803982889       0.026076682365
89 1       6.351430000000       2.189600000000       6.441790000000      -0.030409284973      -0.068149365436       0.005661706338
90 1       2.083650000000       6.441420000000       2.101800000000       0.017789839941      -0.082480787217       0.084280099911
91 1       2.329510000000       4.081700000000       3.984160000000      -0.033195732116      -0.222532086379       0.066499786931
92 1       6.253650000000       4.388280000000       4.342850000000       0.114706483369       0.093662126393      -0.081147170496
93 1       6.505320000000       0.163870000000       0.115230000000       0.002032112438      -0.053873007169       0.009483617257
94 1       2.088560000000       8.453880000000       8.696560000000       0.091908713779      -0.009599655670      -0.061057953717
95 1       6.419530000000       6.460030000000       2.189610000000      -0.067942088244      -0.064894868859      -0.022852901032
96 1       1.929280000000       2.237930000000       6.245620000000      -0.139337186234       0.008241860042      -0.036915331862
97 1       2.008680000000       2.202490000000      10.723750000000      -0.015289954824       0.111478886436       0.103528773402
98 1       6.303560000000       6.207290000000      14.809880000000      -0.153350514417      -0.002056619042       0.037907997417
99 1       4.174530000000       8.320460000000      15.027300000000       0.022454399245      -0.152522271850       0.085625995742
100 1       4.291920000000       8.304900000000      10.489430000000      -0.103820147028       0.025957311874       0.032035660205
101 1       8.355630000000       6.384430000000      12.650660000000       0.028574563841      -0.165857429552       0.070696026185
102 1       0.198520000000       1.792810000000      12.992680000000       0.232343224296       0.004407298868      -0.024148962465
103 1       6.671130000000       3.934060000000      16.728570000000       0.077544823038      -0.040341321214       0.055627771928
104 1       2.057330000000       4.375110000000       8.503400000000      -0.053506091010       0.070526482147       0.009847192403
105 1       0.152500000000       4.446510000000      10.360950000000       0.169876482525      -0.017916324475       0.063879327615
106 1       0.016190000000       4.076670000000      14.887150000000      -0.242736619976      -0.130349550807      -0.061943385398
107 1       4.220810000000       2.102610000000       8.311970000000       0.022058026126      -0.108155244201       0.066254030925
108 1       4.144590000000       6.394720000000      16.877210000000      -0.045221357797      -0.097891042734      -0.078499727026
109 1       2.065910000000       8.465590000000      12.807970000000       0.040808693941       0.011885271865       0.039623869878
110 1       6.431670000000       8.343610000000      12.705980000000       0.001546281084       0.088899551912       0.051209872351
111 1       2.143790000000       6.357300000000      14.689870000000       0.113317214692       0.022092558262       0.061613012527
112 1       6.175400000000       2.018560000000      10.547030000000       0.005674995055       0.037306143533       0.048222187327
113 1       4.169130000000       4.300460000000      10.638630000000       0.050853325912       0.004253008846      -0.030995539248
114 1       4.345650000000       4.212320000000      15.007270000000       0.022670508908       0.029547183633      -0.016873757995
115 1       0.034300000000       2.058320000000      16.900210000000       0.058443050156       0.076032251975       0.070745289071
116 1       8.470840000000       6.407120000000       8.532160000000       0.053869695577      -0.284590613377      -0.062962113059
117 1       0.053080000000       8.371750000000      14.888720000000       0.137759762231       0.138513828237       0.008639329475
118 1       8.315650000000       8.374150000000      10.740070000000      -0.015526296747       0.168521914801      -0.058822618405
119 1       4.330840000000       6.474800000000      12.913020000000      -0.102263475895      -0.011187960663      -0.004745885715
120 1       4.221110000000       1.977700000000      12.809470000000       0.074173279323       0.021861381892       0.006873190499
121 1       6.471890000000       1.986400000000      14.911450000000       0.034917013312       0.149123411053      -0.060076295744
122 1       2.029190000000       6.295440000000      10.565180000000       0.055668590475       0.008374850361       0.034476262810
123 1       2.045810000000       4.055890000000      12.610940000000      -0.014541005853      -0.157292734245      -0.012349394336
124 1       6.260090000000       4.273150000000      12.885350000000       0.035835725775      -0.067839481166      -0.045417473938
125 1       6.213000000000       0.111440000000       8.644680000000      -0.129808608946      -0.018079653176       0.067968719788
126 1       2.269880000000       0.074940000000      16.903490000000      -0.023777251501      -0.034719038914      -0.025156072654
127 1       6.390470000000       6.409900000000      10.681530000000      -0.029008874684      -0.030211850162      -0.061303750947
128 1       2.135640000000       1.916270000000      14.802010000000      -0.032979001733      -0.066714083278      -0.053881496178
129 1       2.311810000000       2.010100000000      19.255700000000      -0.037496045443      -0.025311144022      -0.035610921362
130 1       6.432490000000       6.413900000000      23.288490000000      -0.051070020409       0.065728069744       0.105249132750
131 1       4.389520000000       0.042450000000      23.337270000000      -0.002632280780       0.062617227337       0.024740986768
132 1       4.439080000000       0.063640000000      19.062130000000      -0.097777869810      -0.019118899147      -0.014362059379
133 1       0.120430000000       6.447490000000      21.300820000000       0.080508070756       0.127018870711      -0.056748615907
134 1       0.121120000000       2.109050000000      21.320620000000      -0.047182528873       0.019395049645       0.008660299430
135 1       6.492100000000       4.217040000000      25.414340000000      -0.090762927741      -0.090811638584       0.052480816497
136 1       2.137320000000       4.102120000000      16.991890000000       0.112894238652      -0.019321592113       0.037819011256
137 1       0.032370000000       4.325780000000      18.986930000000      -0.002262190651       0.177429527786      -0.131719365612
138 1       8.466300000000       4.204330000000      23.497110000000       0.150177961588      -0.009177711627      -0.025154141995
139 1       4.411140000000       1.978540000000      17.088150000000      -0.116312202300       0.041004672710      -0.015970352538
140 1       4.209110000000       6.347730000000      25.405540000000      -0.228562467922      -0.000620901102      -0.126486988151
141 1       2.118560000000       0.142950000000      21.231530000000       0.003501096363       0.074348300557       0.043385473386
142 1       6.576100000000       0.026450000000      21.185880000000       0.113193456718      -0.144659890772      -0.139297031258
143 1       2.303740000000       6.372320000000      23.524020000000       0.064159765116      -0.017045978235      -0.029995730991
144 1       6.393210000000       2.030000000000      19.045490000000      -0.096230212896       0.206164991486       0.103693865597
145 1       4.233230000000       4.173920000000      19.252780000000       0.030822986314       0.045601661414      -0.085127899806
146 1       4.562560000000       4.549170000000      23.087400000000      -0.018736403189       0.134901779140       0.066296090845
147 1       8.442530000000       2.279200000000      25.461350000000       0.091348069119      -0.116213320603       0.003572120140
148 1       8.495620000000       6.215250000000      17.105890000000       0.028409800844      -0.032466948510       0.130525826395
149 1       8.401480000000       0.170590000000      23.280730000000       0.017589810818      -0.031374613559      -0.015331369459
150 1       0.059560000000       8.470030000000      19.208860000000       0.026716368851      -0.128319492876       0.003982171162
151 1       4.414320000000       6.450220000000      21.274100000000      -0.009787562227       0.005463609548      -0.048005792600
152 1       4.307190000000       2.232650000000      21.155150000000       0.058554856338       0.091367256591       0.055596513471
153 1       6.502600000000       2.281690000000      23.437360000000       0.004485661998      -0.005928682244      -0.054552641462
154 1       2.182300000000       6.410520000000      19.166730000000       0.019760613694       0.013515368836      -0.025510969740
155 1       2.260900000000       4.139620000000      21.382450000000       0.100511707343      -0.170050008434      -0.017796556949
156 1       6.491880000000       4.369630000000      21.274430000000      -0.283389876581       0.105489094828      -0.024421759246
157 1       6.340060000000       0.003150000000      17.086990000000      -0.061987819078      -0.144707575317      -0.073176496260
158 1       2.104960000000       0.017680000000       0.011950000000      -0.030710746386       0.074569357363       0.032833165932
159 1       6.731820000000       6.598170000000      19.374580000000       0.125827906199       0.004881166314      -0.005982926000
160 1       2.079970000000       2.058910000000      23.286530000000       0.028787693514      -0.018641369098      -0.019726791485
