ITEM: TIMESTEP
0
ITEM: NUMBER OF ATOMS
160
ITEM: BOX BOUNDS pp pp pp
0.0000000000000000e+00 8.3410883540000000e+00
0.0000000000000000e+00 8.3410883540000000e+00
0.0000000000000000e+00 2.5023265062000000e+01
ITEM: ATOMS id type c_pe_atom
1 2      -4.518295169650
2 2      -4.334925551121
3 2      -4.331480644636
4 2      -4.475893753146
5 2      -4.462556167275
6 2      -4.533332341660
7 2      -4.385583078027
8 2      -4.346969922160
9 2      -4.367187431575
10 2      -4.330368560185
11 2      -4.328221725888
12 2      -4.466125359740
13 2      -4.516456885552
14 2      -4.454370151504
15 2      -4.331468982966
16 2      -4.355589647125
17 2      -4.402412820194
18 2      -4.524841961622
19 2      -4.386908044342
20 2      -4.356215662521
21 2      -4.909456920283
22 2      -4.820549894858
23 2      -5.012924527638
24 2      -4.681180503397
25 2      -4.824920836235
26 2      -5.127840307752
27 2      -5.100351290285
28 2      -4.649981437600
29 2      -5.090018134954
30 2      -4.943614836620
31 2      -4.823222576283
32 2      -4.812674716145
33 2      -4.770035444760
34 2      -4.725729444038
35 2      -4.781685867362
36 2      -4.727501313482
37 2      -4.970224917066
38 2      -4.743291354325
39 2      -5.088723793464
40 2      -5.105466835096
41 2      -4.813067469331
42 2      -4.917407957199
43 2      -4.837267603977
44 2      -4.768250963105
45 2      -4.734212468578
46 2      -4.716770833876
47 2      -4.787613182039
48 2      -4.948525803637
49 2      -4.784154039303
50 2      -5.110141628663
51 2      -5.127459458514
52 2      -4.781686307841
53 2      -4.712941702606
54 2      -4.783481547720
55 2      -4.773573861645
56 2      -4.780935253489
57 2      -4.829533619662
58 2      -4.816333739145
59 2      -4.769932866697
60 2      -5.096961939067
61 2      -4.701005696798
62 2      -4.657461758368
63 2      -4.672007929658
64 2      -4.678112457234
65 1     -11.084354231324
66 1     -11.134890780809
67 1     -11.031935076238
68 1     -11.068256372380
69 1     -11.052945246607
70 1     -10.932888750474
71 1     -11.064474519110
72 1     -10.685542692455
73 1     -11.018130492663
74 1     -10.673559582514
75 1     -11.021079046492
76 1     -10.995659452051
77 1     -11.228223748562
78 1     -11.022505408171
79 1     -11.026678857388
80 1     -10.978666413024
81 1     -11.014074703740
82 1     -11.095048317402
83 1     -11.002394637295
84 1     -11.042512681612
85 1     -11.251019411935
86 1     -11.078681379488
87 1     -11.107995858363
88 1     -11.037063265318
89 1     -11.028088371026
90 1     -11.081919120969
91 1     -10.680442735873
92 1     -11.109040733540
93 1     -11.021525366750
94 1     -11.073043820074
95 1     -10.974491121112
96 1     -10.931201092814
97 1     -10.930731153767
98 1     -10.924403603924
99 1     -11.007521786231
100 1     -11.010771670435
101 1     -11.094120646394
102 1     -10.671138057514
103 1     -10.634564074793
104 1     -11.026054321886
105 1     -10.679086386814
106 1     -11.036850587329
107 1     -11.061556031744
108 1     -10.978503236840
109 1     -11.048937608995
110 1     -11.143505636237
111 1     -11.082006829647
112 1     -11.020291690796
113 1     -11.236122398181
114 1     -11.085165576288
115 1     -11.060489384151
116 1     -11.050675633216
117 1     -11.068504694609
118 1     -11.088084735882
119 1     -11.040842288643
120 1     -11.240554085992
121 1     -11.045990425631
122 1     -11.038697453011
123 1     -10.933356613467
124 1     -11.030777391772
125 1     -10.997073364385
126 1     -11.098249768744
127 1     -11.126256667597
128 1     -11.087291609934
129 1     -11.028141308086
130 1     -11.054995173177
131 1     -11.226731290354
132 1     -11.117965801285
133 1     -11.069253620691
134 1     -10.974358313185
135 1     -11.100092753756
136 1     -11.201234439238
137 1     -10.937504889587
138 1     -11.080561092241
139 1     -11.127238846515
140 1     -10.944688694012
141 1     -11.062808847061
142 1     -11.074103775564
143 1     -10.961249964906
144 1     -11.089869462287
145 1     -11.033316073133
146 1     -10.631784427158
147 1     -11.102342005512
148 1     -10.953999681421
149 1     -11.123402775611
150 1     -11.038090017606
151 1     -11.067463745987
152 1     -10.992753919212
153 1     -11.138147817659
154 1     -11.231151640876
155 1     -10.974097275702
156 1     -11.003589840410
157 1     -11.095913237569
158 1     -11.227317319359
159 1     -10.678291431415
160 1     -10.959255368064
