160
Config_type=bulk_gamma_phase Weight=1.0 Lattice="8.341088354 0.000000000 0.000000000 0.000000000 8.341088354 0.000000000 0.000000000 0.000000000 25.023265062" Energy=-1360.45053220 Virial="19.27891 0.30024 -19.88696 0.30024 18.76384 -2.19766 -19.88696 -2.19766 23.61178" pbc="T T T" Properties=species:S:1:pos:R:3:forces:R:3
Ga	      1.20992      5.18046     22.00132         0.007692     -0.007682     -0.012349
Ga	      5.17858      0.84263     13.62075         0.004521     -0.008998     -0.003069
Ga	      7.12611      7.37461      7.36108         0.000221     -0.010191     -0.017381
Ga	      7.25975      7.10401     15.71093        -0.017090     -0.004001      0.004024
Ga	      5.20223      5.23242      0.97992        -0.006676     -0.003174     -0.003880
Ga	      3.01788      3.19101      7.18351         0.009233      0.002452      0.020636
Ga	      0.94621      1.04502      1.09137        -0.018926      0.006024     -0.014631
Ga	      5.14964      1.03168      5.22248         0.006656     -0.019797     -0.016438
Ga	      3.16990      2.95158     15.58736        -0.015901     -0.009579     -0.015444
Ga	      5.36291      1.11108     21.82924         0.011662     -0.010310     -0.004236
Ga	      3.12256      7.22009     11.47058        -0.000843      0.009583     -0.010705
Ga	      7.39048      3.18366     19.73492         0.002305     -0.004471      0.000402
Ga	      1.01384      5.07594     13.43485         0.012349     -0.011495      0.009852
Ga	      7.29910      3.20890      3.19274         0.009862     -0.013598      0.018790
Ga	      5.07946      5.31809      9.33247         0.005038     -0.013040      0.012805
Ga	      7.32793      7.40954     24.01161         0.024437     -0.001794     -0.004408
Ga	      3.18366      7.42136     19.85697        -0.013503      0.019888      0.023167
Ga	      0.90924      1.07383      9.48136        -0.007559     -0.010170     -0.006201
Ga	      3.21652      7.39629      3.07826        -0.010524     -0.005146     -0.001158
Ga	      1.17244      1.03243     17.75368         0.003739     -0.001118     -0.007660
Ga	      3.91263      0.19063      8.35419         0.000279      0.010301      0.000260
Ga	      6.11608      6.08896     12.48816        -0.014749     -0.004913      0.026071
Ga	      2.15374      2.12967     20.86871        -0.002718      0.003788      0.001471
Ga	      6.38056      6.26883     20.81743         0.007617      0.014382     -0.003235
Ga	      1.95479      6.37050      8.25039        -0.013114      0.023928     -0.004781
Ga	      8.29377      2.05363      6.21723         0.019620     -0.000109      0.019245
Ga	      1.98457      2.08618      4.20670        -0.000876     -0.005733      0.011988
Ga	      0.04620      2.00484     14.55663         0.011273     -0.003195     -0.016286
Ga	      0.16664      6.17992     18.72314         0.004905      0.006562      0.017401
Ga	      6.24863      0.05696      2.09534        -0.009310     -0.024198      0.014735
Ga	      6.07557      0.07573     10.48966        -0.012079     -0.000196     -0.007577
Ga	      4.16330      2.18931     18.72064        -0.013005     -0.005797      0.007312
Ga	      6.38485      8.29854     18.77229         0.023275      0.017871     -0.016113
Ga	      6.32972      2.04719     16.66651        -0.006895      0.000485      0.004660
Ga	      0.15821      2.06209     22.99095         0.003227      0.001009      0.003918
Ga	      2.02492      8.12711     14.69151         0.012042     -0.010206      0.002958
Ga	      3.99907      6.00290     14.60526         0.004785     -0.003150     -0.000024
Ga	      6.22935      4.19180      6.27786         0.012546     -0.011353     -0.016150
Ga	      4.19176      6.36257     22.97696         0.012857      0.006688      0.007584
Ga	      0.09733      4.17169     16.68084         0.010686     -0.016975      0.001838
Ga	      2.08069      4.22345      2.08406        -0.009679     -0.013639      0.003549
Ga	      4.12437      4.28585     20.80129         0.005255      0.013934      0.016929
Ga	      4.12919      8.14744     16.74440         0.001873     -0.005439      0.001262
Ga	      6.27488      4.22617     22.89584        -0.013444     -0.008640     -0.013552
Ga	      8.27685      6.18051     10.40762         0.026090      0.013571     -0.004680
Ga	      8.32448      8.27490     12.53413         0.003862      0.018477     -0.029962
Ga	      0.03395      4.25806      0.03762         0.020929      0.002822     -0.010979
Ga	      6.19629      4.04690     14.56928         0.004360      0.015595      0.000020
Ga	      4.11824      4.17760      4.13842         0.005561      0.006996     -0.022620
Ga	      2.11899      2.02759     12.43734         0.017201      0.016720     -0.001218
Ga	      2.08670      4.09361     10.43861         0.000227      0.001503      0.009715
Ga	      0.04157      6.40319      2.18899        -0.012576     -0.003736     -0.012060
Ga	      0.20375      8.30084     20.95409        -0.013822      0.003426     -0.003296
Ga	      4.10777      2.03464      1.97634         0.003453      0.021169     -0.001589
Ga	      6.17821      2.05008     24.97754         0.003150     -0.005451      0.006695
Ga	      8.31485      4.12768      8.33749        -0.012048      0.002408      0.007744
Ga	      6.06280      2.15930      8.44381        -0.008874     -0.013269     -0.011218
Ga	      4.00354      6.39820      6.19534         0.005983      0.019318      0.006879
Ga	      6.31313      6.39490      4.22230        -0.005855     -0.001828     -0.011326
Ga	      2.17154      6.35853     24.98929        -0.010139      0.019583      0.006504
Ga	      5.14749      3.11165     11.51161        -0.000169     -0.027816     -0.005026
Ga	      3.16035      1.07303     23.96063         0.010997      0.015896     -0.007899
Ga	      3.16144      5.14695     17.71964        -0.000251      0.001092     -0.001677
Ga	      0.98446      7.36419      5.20644        -0.000929     -0.014614      0.014232
O	      2.11101      2.13879      2.11365         0.003925     -0.006458      0.004691
O	      6.11974      6.20886      6.22027        -0.001804     -0.000509     -0.004282
O	      4.22403      8.28294      6.39638        -0.008724      0.008192      0.008036
O	      4.28922      0.12708      2.06428        -0.001455      0.008999      0.005250
O	      8.22643      6.31860      4.10883        -0.011516     -0.008081     -0.004904
O	      0.02569      2.15725      4.25064         0.001500     -0.001803      0.002845
O	      6.17786      4.15524      8.31123        -0.007172      0.005287     -0.005129
O	      1.91587      4.41186      0.21625        -0.003916      0.008533      0.000414
O	      8.33424      4.33210      2.06599        -0.001266     -0.000792     -0.012005
O	      8.10232      4.00862      6.47207        -0.009222     -0.006111     -0.003734
O	      4.26352      2.11584      0.05117         0.000343      0.010147      0.002590
O	      3.99927      6.36136      8.21040         0.001176     -0.006649     -0.001854
O	      2.10425      0.08272      4.15223         0.002026     -0.015921     -0.010700
O	      6.12900      8.29168      4.07446        -0.016212      0.000004      0.004248
O	      2.08803      6.34885      6.32218        -0.001737     -0.005703     -0.001052
O	      6.19619      2.11832      2.02305         0.001100     -0.003244      0.000367
O	      4.16363      4.10770      2.10317        -0.001898      0.009466     -0.000786
O	      4.20445      4.31153      6.14965        -0.003722      0.004063      0.011024
O	      8.14042      2.09385      8.32163         0.000894      0.001299     -0.013907
O	      0.04476      6.27729      0.09166        -0.000349     -0.002685     -0.009908
O	      8.19983      0.06699      6.27484        -0.003181     -0.009151     -0.008793
O	      8.20771      8.31446      2.10352         0.006448      0.000450      0.001560
O	      4.22283      6.20826      4.20994        -0.005187      0.001915      0.007040
O	      4.10487      2.16069      4.08846        -0.008092     -0.000729     -0.003755
O	      6.22635      2.15860      6.32746        -0.002223     -0.001491      0.000337
O	      2.04581      6.30549      2.05438         0.005951      0.002025     -0.000935
O	      2.23802      4.03344      3.95049         0.003979     -0.003110      0.003482
O	      6.13309      4.30249      4.25261        -0.005127      0.000989     -0.004257
O	      6.34787      0.15076      0.11249         0.012206      0.003020     -0.004109
O	      2.02006      8.29337      8.47904        -0.003917      0.002142     -0.002694
O	      6.29711      6.32762      2.14902        -0.005404     -0.004679     -0.004237
O	      1.91259      2.14258      6.14624        -0.001669      0.000433      0.009076
O	      2.02205      2.13831     10.49359        -0.014981      0.006651     -0.002597
O	      6.17425      6.09706     14.52560         0.012576     -0.002108      0.002000
O	      4.09046      8.15049     14.73505        -0.004527      0.004945      0.005748
O	      4.18898      8.18396     10.30117         0.002151      0.001085     -0.005172
O	      8.19676      6.26063     12.42202         0.005744      0.000879      0.006577
O	      0.16207      1.80527     12.69040         0.004548     -0.002240      0.006694
O	      6.50588      3.90795     16.45538         0.021706     -0.005957      0.005883
O	      2.01605      4.29637      8.35513        -0.002098      0.000329     -0.000082
O	      0.11998      4.31089     10.20454         0.000481      0.000082     -0.008004
O	      8.33841      4.00231     14.61387         0.006744     -0.005272     -0.011126
O	      4.13706      2.08871      8.20247        -0.008856      0.000563     -0.008592
O	      4.12726      6.25022     16.56524        -0.001420     -0.003313     -0.005111
O	      2.01443      8.29623     12.57556        -0.000765     -0.007609     -0.003378
O	      6.30352      8.17694     12.46996        -0.005186     -0.000949     -0.001826
O	      2.08817      6.21872     14.45516         0.005166     -0.016850     -0.006460
O	      6.11614      1.99615     10.36385        -0.000896      0.007835      0.000026
O	      4.08591      4.22342     10.43281         0.010804      0.007707      0.000911
O	      4.25802      4.10695     14.66270        -0.001982     -0.013737      0.002612
O	      0.02501      2.02509     16.58175         0.006446      0.006696      0.007780
O	      8.29304      6.26086      8.36991        -0.011622      0.007089      0.003176
O	      0.03254      8.23133     14.59733        -0.003852     -0.002927      0.005237
O	      8.15681      8.20960     10.52062        -0.001049      0.005930     -0.010096
O	      4.23169      6.31134     12.65414        -0.000004     -0.004600      0.010952
O	      4.12838      1.93778     12.55883        -0.002815     -0.003879     -0.000184
O	      6.34408      1.95876     14.62815        -0.005218     -0.001514      0.007643
O	      1.97711      6.17615     10.35515         0.011765     -0.001012     -0.002045
O	      2.05437      3.99008     12.38456        -0.020191     -0.007213     -0.002460
O	      6.20464      4.17641     12.62556         0.000127      0.003132     -0.004459
O	      6.07762      0.10770      8.47639         0.003415     -0.001415     -0.000212
O	      2.21569      0.03459     16.60118        -0.010270      0.011429      0.000784
O	      6.26234      6.29783     10.47367        -0.003329      0.002698      0.005351
O	      2.07767      1.86364     14.51579         0.001608      0.000336      0.005842
O	      2.26082      2.00742     18.88473         0.000427     -0.007639     -0.004179
O	      6.30731      6.27913     22.84710         0.000402      0.010169      0.001533
O	      4.30676      0.03042     22.89779        -0.009354      0.020672      0.014990
O	      4.35427      0.07295     18.71235        -0.004617     -0.009046     -0.003718
O	      0.10512      6.31134     20.87170         0.000152      0.003989     -0.001856
O	      0.10503      2.06567     20.91494        -0.008884      0.000748     -0.003765
O	      6.36616      4.14202     24.93502        -0.002297      0.003742      0.009215
O	      2.09399      4.02007     16.66094         0.005634      0.002419      0.006154
O	      0.07809      4.22429     18.63917        -0.004228     -0.000061      0.006298
O	      8.29960      4.13145     23.03456        -0.008302     -0.004847     -0.009485
O	      4.31947      1.92648     16.74703        -0.006204     -0.000759     -0.006596
O	      4.13708      6.27975     24.93349         0.001271     -0.005296      0.005198
O	      2.09574      0.14552     20.86840        -0.000759     -0.002993     -0.000759
O	      6.45705      0.00552     20.78236        -0.000675      0.001184     -0.000091
O	      2.23632      6.30039     23.04905        -0.006397      0.010232     -0.006226
O	      6.27072      1.98680     18.69133         0.000788     -0.002289      0.002953
O	      4.21812      4.10507     18.86719         0.009349     -0.008979      0.004423
O	      4.41980      4.43055     22.69352         0.009395      0.009815     -0.005142
O	      8.27216      2.23089     24.98325         0.011604      0.009810      0.004295
O	      0.04637      6.11700     16.76448         0.004504     -0.007860     -0.001782
O	      8.27714      0.15345     22.85359        -0.009618      0.007407     -0.002116
O	      0.05978      8.30286     18.85612         0.006372     -0.001306     -0.005621
O	      4.34049      6.32274     20.87578         0.001108     -0.002697      0.014141
O	      4.23211      2.19052     20.75638         0.001882     -0.003897      0.007463
O	      6.38824      2.22961     22.98532         0.001759      0.007712      0.002901
O	      2.14388      6.29034     18.80335         0.005176     -0.000616      0.001455
O	      2.20753      4.08412     20.90995         0.022920      0.006238      0.000265
O	      6.33278      4.26968     20.87144        -0.003729     -0.006955      0.010134
O	      6.22099      0.00857     16.75306        -0.004745     -0.006260     -0.000785
O	      2.05943      0.01433      0.01933        -0.010189      0.010816      0.013317
O	      6.56835      6.42329     18.94985         0.003574      0.000082      0.017274
O	      2.05487      2.08364     22.85087        -0.014509      0.009177     -0.003039
