ITEM: TIMESTEP
0
ITEM: NUMBER OF ATOMS
40
ITEM: BOX BOUNDS pp pp pp
0.0000000000000000e+00 8.9077567690000006e+00
0.0000000000000000e+00 5.1872663960000001e+00
0.0000000000000000e+00 9.5315614849999992e+00
ITEM: ATOMS id type c_pe_atom
1 2      -4.956127319959
2 2      -4.956115817849
3 2      -4.623882087062
4 2      -4.623882138458
5 2      -5.058397774981
6 2      -4.927470339165
7 2      -4.927470702219
8 2      -5.058407831920
9 2      -4.623666456557
10 2      -4.623662513275
11 2      -4.954876445771
12 2      -4.954885341688
13 2      -5.059776654079
14 2      -4.927432653646
15 2      -4.927435090432
16 2      -5.059782187988
17 1     -11.049427006286
18 1     -11.061746248891
19 1     -10.992212416835
20 1     -10.473457827614
21 1     -11.049419690565
22 1     -10.971292464537
23 1     -10.992224877967
24 1     -10.473463405689
25 1     -10.971003069659
26 1     -11.048538125411
27 1     -10.472176513720
28 1     -10.992166797687
29 1     -11.062464459183
30 1     -11.048530227219
31 1     -10.945076483080
32 1     -10.945075593637
33 1     -11.062467955839
34 1     -10.971289942620
35 1     -10.945085867111
36 1     -10.945076674500
37 1     -10.971010960322
38 1     -11.061762837257
39 1     -10.472176170166
40 1     -10.992178529777
