ITEM: TIMESTEP
0
ITEM: NUMBER OF ATOMS
120
ITEM: BOX BOUNDS xy xz yz pp pp pp
-5.0637156020000003e+00 1.0127431204000001e+01 -5.0637156020000003e+00
0.0000000000000000e+00 8.7706135340000007e+00 0.0000000000000000e+00
0.0000000000000000e+00 1.3631884907000000e+01 0.0000000000000000e+00
ITEM: ATOMS id type x y z fx fy fz
1 2       0.000000000000       0.000000000000       1.964200000000      -0.000025831944       0.000030041868      -0.009119307966
2 2      -0.000000000000       2.923540000000       0.307790000000      -0.000029875087      -0.000021891796       0.009062575684
3 2       2.531860000000       1.461770000000       2.579760000000       0.000027601961      -0.000017288216       0.009084753414
4 2      -0.000000000000       2.923540000000       4.236190000000       0.000015726388       0.000000349763      -0.009124899336
5 2       2.531860000000       1.461770000000       6.508160000000      -0.000003229818      -0.000014983593      -0.009081129921
6 2       0.000000000000       0.000000000000       4.851740000000      -0.000046239462       0.000025572679       0.009135878049
7 2      -0.000000000000       2.923540000000       7.123730000000      -0.000003050780      -0.000027866006       0.009085544922
8 2       0.000000000000       0.000000000000       8.780140000000       0.000002351510       0.000046688507      -0.009117707682
9 2      -0.000000000000       2.923540000000      11.052130000000      -0.000040762459      -0.000005848034      -0.009110573241
10 2       2.531860000000       1.461770000000       9.395700000000      -0.000001753856      -0.000014131537       0.009105295335
11 2       0.000000000000       0.000000000000      11.667680000000      -0.000026452418       0.000016959952       0.009140456090
12 2       2.531860000000       1.461770000000      13.324100000000      -0.000024362805      -0.000036259684      -0.009045921021
13 2       7.595570000000       4.385310000000       1.964200000000       0.000078909676      -0.000063431427      -0.009112189170
14 2      -2.531860000000       7.308840000000       0.307790000000       0.000058515204       0.000120877964       0.009049140063
15 2      -0.000000000000       5.847080000000       2.579760000000       0.000011092125      -0.000042006905       0.009077154146
16 2      -2.531860000000       7.308840000000       4.236190000000       0.000062114716       0.000084138745      -0.009120139512
17 2      -0.000000000000       5.847080000000       6.508160000000      -0.000026059454      -0.000087292769      -0.009067883025
18 2       7.595570000000       4.385310000000       4.851740000000       0.000027457685      -0.000058265779       0.009137600863
19 2      -2.531860000000       7.308840000000       7.123730000000       0.000067042026       0.000113864040       0.009059724984
20 2       7.595570000000       4.385310000000       8.780140000000       0.000086868379      -0.000054146736      -0.009099424253
21 2      -2.531860000000       7.308840000000      11.052130000000       0.000029091241       0.000107177563      -0.009116524594
22 2      -0.000000000000       5.847080000000       9.395700000000      -0.000032289005      -0.000046457126       0.009085649798
23 2       7.595570000000       4.385310000000      11.667680000000       0.000080242869      -0.000053067717       0.009126809993
24 2      -0.000000000000       5.847080000000      13.324100000000       0.000019034746      -0.000085384201      -0.009056255070
25 2       5.063720000000       0.000000000000       1.964200000000      -0.000074341520       0.000007890178      -0.009117778169
26 2       5.063720000000       2.923540000000       0.307790000000      -0.000064122116      -0.000010363456       0.009053637013
27 2       7.595570000000       1.461770000000       2.579760000000       0.000070642384       0.000002684524       0.009078696206
28 2       5.063720000000       2.923540000000       4.236190000000      -0.000074253477      -0.000016648153      -0.009116867194
29 2       7.595570000000       1.461770000000       6.508160000000       0.000033001005      -0.000023393472      -0.009077204945
30 2       5.063720000000       0.000000000000       4.851740000000      -0.000102011510      -0.000021755615       0.009119455388
31 2       5.063720000000       2.923540000000       7.123730000000      -0.000042583725      -0.000011107422       0.009082465139
32 2       5.063720000000       0.000000000000       8.780140000000      -0.000034750281      -0.000003532351      -0.009129165221
33 2       5.063720000000       2.923540000000      11.052130000000      -0.000094956526      -0.000000816310      -0.009095159974
34 2       7.595570000000       1.461770000000       9.395700000000       0.000043868056      -0.000010938359       0.009101796029
35 2       5.063720000000       0.000000000000      11.667680000000      -0.000069855676      -0.000002479241       0.009142543584
36 2       7.595570000000       1.461770000000      13.324100000000       0.000079316011      -0.000029438820      -0.009050140027
37 2       2.531860000000       4.385310000000       1.964200000000      -0.000004676469      -0.000058015785      -0.009114210653
38 2       2.531860000000       7.308840000000       0.307790000000      -0.000038075907       0.000071051049       0.009045617422
39 2       5.063720000000       5.847080000000       2.579760000000      -0.000059788414      -0.000043172445       0.009069939675
40 2       2.531860000000       7.308840000000       4.236190000000       0.000012181307       0.000067702606      -0.009126534535
41 2       5.063720000000       5.847080000000       6.508160000000      -0.000098786705      -0.000089687387      -0.009055379159
42 2       2.531860000000       4.385310000000       4.851740000000      -0.000008457826      -0.000063588558       0.009136596883
43 2       2.531860000000       7.308840000000       7.123730000000       0.000046056033       0.000072734874       0.009060450347
44 2       2.531860000000       4.385310000000       8.780140000000       0.000021146000      -0.000062048135      -0.009112443603
45 2       2.531860000000       7.308840000000      11.052130000000      -0.000022844055       0.000056042935      -0.009116910895
46 2       5.063720000000       5.847080000000       9.395700000000      -0.000085722711      -0.000048490878       0.009074707166
47 2       2.531860000000       4.385310000000      11.667680000000       0.000026351240      -0.000061184454       0.009137707018
48 2       5.063720000000       5.847080000000      13.324100000000      -0.000070043590      -0.000079199980      -0.009047054069
49 1      -0.767260000000       1.328940000000       3.407970000000       0.021675964762      -0.037584513434       0.000044249555
50 1       1.534530000000       0.000000000000       3.407970000000      -0.043425732430      -0.000031839137       0.000052877072
51 1       1.764600000000       3.056370000000       3.407970000000       0.021648902989       0.037586374099       0.000054949918
52 1       3.299120000000       0.132830000000       1.135990000000      -0.021686384926       0.037605083891       0.000027606637
53 1       3.299120000000       2.790700000000       1.135990000000      -0.021710911887      -0.037497872840       0.000051127240
54 1       0.997330000000       1.461770000000       1.135990000000       0.043447541219      -0.000032031651       0.000032231450
55 1       1.764600000000       2.790700000000       7.951930000000       0.021703575962      -0.037506873302       0.000063930208
56 1       4.066390000000       1.461770000000       7.951930000000      -0.043455363102      -0.000035409605       0.000048166140
57 1       1.764600000000       0.132830000000       7.951930000000       0.021650743420       0.037611912423       0.000068067284
58 1       0.767260000000       1.594600000000       5.679960000000      -0.021726310190       0.037558594954      -0.000100183097
59 1       0.767260000000       4.252470000000       5.679960000000      -0.021631980781      -0.037531982002      -0.000086618121
60 1      -1.534530000000       2.923540000000       5.679960000000       0.043423516443       0.000034165457      -0.000113577635
61 1      -0.767260000000       4.252470000000      12.495900000000       0.021630240414      -0.037530901728      -0.000068144316
62 1       1.534530000000       2.923540000000      12.495900000000      -0.043438853799       0.000034777369      -0.000081350260
63 1      -0.767260000000       1.594600000000      12.495900000000       0.021708249181       0.037566975472      -0.000073372320
64 1       8.362830000000       3.056370000000      10.223910000000      -0.021624345760       0.037580202637       0.000075819116
65 1       0.767260000000       1.328940000000      10.223910000000      -0.021687501389      -0.037583009756       0.000045986814
66 1       3.529190000000       0.000000000000      10.223910000000       0.043369278950      -0.000068715699       0.000066911790
67 1       6.828310000000       5.714240000000       3.407970000000       0.021742785092      -0.037521282493       0.000083506851
68 1      -0.997330000000       4.385310000000       3.407970000000      -0.043427268772      -0.000029806636       0.000041603629
69 1      -0.767260000000       7.441680000000       3.407970000000       0.021638218865       0.037551049682       0.000066434972
70 1       0.767260000000       4.518140000000       1.135990000000      -0.021672496538       0.037613772096       0.000039220731
71 1       0.767260000000       7.176010000000       1.135990000000      -0.021681342001      -0.037571086903       0.000029349782
72 1      -1.534530000000       5.847080000000       1.135990000000       0.043463317114      -0.000094196232       0.000056780737
73 1      -0.767260000000       7.176010000000       7.951930000000       0.021712562640      -0.037562766696       0.000061757039
74 1       1.534530000000       5.847080000000       7.951930000000      -0.043465708088      -0.000092846825       0.000075428854
75 1      -0.767260000000       4.518140000000       7.951930000000       0.021669527027       0.037626472661       0.000061278570
76 1      -1.764600000000       5.979910000000       5.679960000000      -0.021720173476       0.037540608397      -0.000107260664
77 1      -1.764600000000       8.637780000000       5.679960000000      -0.021613498638      -0.037606779095      -0.000122804115
78 1      -4.066390000000       7.308840000000       5.679960000000       0.043480680833       0.000118479731      -0.000147476641
79 1      -3.299120000000       8.637780000000      12.495900000000       0.021667684117      -0.037597244009      -0.000083304003
80 1      -0.997330000000       7.308840000000      12.495900000000      -0.043431264571       0.000105204054      -0.000132195260
81 1      -3.299120000000       5.979910000000      12.495900000000       0.021741523103       0.037547353947      -0.000113097258
82 1       5.830970000000       7.441680000000      10.223910000000      -0.021579707882       0.037570733444       0.000092078089
83 1      -1.764600000000       5.714240000000      10.223910000000      -0.021666226745      -0.037514159488       0.000049317001
84 1       0.997330000000       4.385310000000      10.223910000000       0.043417131532      -0.000026934125       0.000044593075
85 1       4.296460000000       1.328940000000       3.407970000000       0.021652264635      -0.037579455975       0.000036032904
86 1       6.598240000000       0.000000000000       3.407970000000      -0.043358019486      -0.000057796369       0.000064597915
87 1       6.828310000000       3.056370000000       3.407970000000       0.021711880238       0.037581437170       0.000046518821
88 1       8.362830000000       0.132830000000       1.135990000000      -0.021625881930       0.037600564290       0.000052823278
89 1       8.362830000000       2.790700000000       1.135990000000      -0.021672259235      -0.037503926460       0.000040859750
90 1       6.061050000000       1.461770000000       1.135990000000       0.043396066463      -0.000028743132       0.000014836580
91 1       6.828320000000       2.790700000000       7.951930000000       0.021628108358      -0.037517125654       0.000040080900
92 1       9.130100000000       1.461770000000       7.951930000000      -0.043403729273      -0.000040125737       0.000047557656
93 1       6.828320000000       0.132830000000       7.951930000000       0.021594759224       0.037618987552       0.000073456218
94 1       5.830970000000       1.594600000000       5.679960000000      -0.021644729118       0.037571297345      -0.000069320210
95 1       5.830970000000       4.252470000000       5.679960000000      -0.021553615763      -0.037546746080      -0.000090826976
96 1       3.529190000000       2.923540000000       5.679960000000       0.043392851556       0.000034054694      -0.000101970651
97 1       4.296460000000       4.252470000000      12.495900000000       0.021618706184      -0.037522444714      -0.000064004462
98 1       6.598240000000       2.923540000000      12.495900000000      -0.043403090545       0.000007573862      -0.000085959489
99 1       4.296450000000       1.594600000000      12.495900000000       0.021818428077       0.037549728641      -0.000107571720
100 1       3.299120000000       3.056370000000      10.223910000000      -0.021664369840       0.037597422803       0.000053783752
101 1       5.830970000000       1.328940000000      10.223910000000      -0.021615712969      -0.037580201504       0.000036146380
102 1       8.592900000000       0.000000000000      10.223910000000       0.043430655329      -0.000024552828       0.000055605464
103 1       1.764600000000       5.714240000000       3.407970000000       0.021669767618      -0.037518213953       0.000045272100
104 1       4.066390000000       4.385310000000       3.407970000000      -0.043436682967      -0.000026420478       0.000031127743
105 1       4.296460000000       7.441680000000       3.407970000000       0.021609524711       0.037573383786       0.000058703698
106 1       5.830980000000       4.518140000000       1.135990000000      -0.021731874102       0.037612095545       0.000007850468
107 1       5.830980000000       7.176010000000       1.135990000000      -0.021767487766      -0.037550936842       0.000051012609
108 1       3.529190000000       5.847080000000       1.135990000000       0.043462902247      -0.000091216146       0.000056505565
109 1       4.296460000000       7.176010000000       7.951930000000       0.021661013758      -0.037560424596       0.000045941940
110 1       6.598240000000       5.847080000000       7.951930000000      -0.043404499490      -0.000095594036       0.000072499039
111 1       4.296460000000       4.518140000000       7.951930000000       0.021642615919       0.037614853818       0.000071427676
112 1       3.299120000000       5.979910000000       5.679960000000      -0.021723770923       0.037551468899      -0.000106529067
113 1       3.299110000000       8.637780000000       5.679960000000      -0.021556424629      -0.037596637157      -0.000146561428
114 1       0.997330000000       7.308840000000       5.679960000000       0.043428836133       0.000086653418      -0.000134891089
115 1       1.764600000000       8.637780000000      12.495900000000       0.021609137239      -0.037579850709      -0.000091929335
116 1       4.066380000000       7.308840000000      12.495900000000      -0.043343568070       0.000096524753      -0.000108249283
117 1       1.764600000000       5.979910000000      12.495900000000       0.021676158708       0.037536994543      -0.000079026866
118 1       0.767260000000       7.441680000000      10.223910000000      -0.021629865542       0.037557382843       0.000068638321
119 1       3.299120000000       5.714240000000      10.223910000000      -0.021681380324      -0.037531016144       0.000048474829
120 1       6.061050000000       4.385310000000      10.223910000000       0.043373479920      -0.000030099007       0.000039806134
