ITEM: TIMESTEP
0
ITEM: NUMBER OF ATOMS
120
ITEM: BOX BOUNDS xy xz yz pp pp pp
-5.0637156020000003e+00 1.0127431204000001e+01 -5.0637156020000003e+00
0.0000000000000000e+00 8.7706135340000007e+00 0.0000000000000000e+00
0.0000000000000000e+00 1.3631884907000000e+01 0.0000000000000000e+00
ITEM: ATOMS id type v_vir_xx v_vir_yy v_vir_zz v_vir_xy v_vir_xz v_vir_yz
1 2      -3.513048993697      -3.513133787119      -2.458570380653      -0.000026065699       0.000021533207       0.000001194583
2 2      -3.513091847635      -3.513153969217      -2.458610145265       0.000001291558      -0.000016743258       0.000004256661
3 2      -3.513045326366      -3.513076793281      -2.458585037583      -0.000010388601       0.000013805233       0.000000328168
4 2      -3.512999704101      -3.513046618033      -2.458504702222      -0.000015810505      -0.000010803039      -0.000008381546
5 2      -3.513108319551      -3.513129243201      -2.458735847550       0.000017349105       0.000001908018       0.000001690358
6 2      -3.513003937418      -3.513093814037      -2.458489197154      -0.000009798563      -0.000029610450      -0.000003007644
7 2      -3.513129014302      -3.513179399229      -2.458723501592       0.000002994696       0.000005311961       0.000001915483
8 2      -3.513077061181      -3.513152580898      -2.458613688243       0.000026585026      -0.000021661604      -0.000006717084
9 2      -3.512994948254      -3.513045571732      -2.458461167775       0.000011404197       0.000016069915      -0.000008079978
10 2      -3.513049202499      -3.513083688237      -2.458629517561       0.000002788938      -0.000006411902      -0.000001883178
11 2      -3.513024654710      -3.513077764849      -2.458481273469       0.000026863370       0.000005879262      -0.000015719994
12 2      -3.513100264299      -3.513098630413      -2.458626081518      -0.000011701821       0.000016082212       0.000005783681
13 2      -3.513100448401      -3.513134173216      -2.458616466603       0.000001023660      -0.000020682541       0.000011542517
14 2      -3.513183887345      -3.513171812244      -2.458670929714      -0.000015205809       0.000015706891       0.000031946496
15 2      -3.513072806607      -3.513117172660      -2.458623174856      -0.000014319945      -0.000000566554       0.000002397964
16 2      -3.513029142163      -3.513098641374      -2.458546953122       0.000017032549      -0.000015421791      -0.000010099991
17 2      -3.513172958583      -3.513157393842      -2.458774525867      -0.000007734384       0.000004035245       0.000031611817
18 2      -3.513042215411      -3.513154069482      -2.458540928146      -0.000004089332      -0.000009891400      -0.000003481820
19 2      -3.513206026796      -3.513208472376      -2.458783477603      -0.000000161578       0.000015022029       0.000025608747
20 2      -3.513181858012      -3.513196574314      -2.458657090956       0.000012906179      -0.000017854633       0.000005231960
21 2      -3.513037531399      -3.513093325752      -2.458504904689       0.000003479406      -0.000000115004      -0.000019016383
22 2      -3.513098426145      -3.513127561708      -2.458674213774       0.000003964288      -0.000006859899       0.000000448922
23 2      -3.513110597108      -3.513173739599      -2.458526063974      -0.000025102616       0.000020471660      -0.000000015044
24 2      -3.513145810789      -3.513136512974      -2.458672990670      -0.000000461317      -0.000005925558       0.000027213845
25 2      -3.513125193615      -3.513164048948      -2.458603210393      -0.000022248259       0.000019962976       0.000004795376
26 2      -3.513167848472      -3.513195343607      -2.458663252220       0.000034012484      -0.000004243730       0.000006687767
27 2      -3.513128697030      -3.513127059102      -2.458620936015      -0.000013839987       0.000019820015       0.000003012754
28 2      -3.513121656675      -3.513099858323      -2.458565589733      -0.000017610389      -0.000011923291      -0.000014276992
29 2      -3.513192659966      -3.513187522302      -2.458775550428       0.000036963029       0.000031564127      -0.000002904084
30 2      -3.513048076086      -3.513115701614      -2.458517093296       0.000004709130      -0.000032437199      -0.000017090451
31 2      -3.513220767887      -3.513237649695      -2.458768735252       0.000008412839       0.000030966850       0.000004602258
32 2      -3.513111135651      -3.513170837549      -2.458609966156      -0.000015890270      -0.000027103586       0.000004724181
33 2      -3.513093547786      -3.513105204399      -2.458518401538       0.000020084128       0.000020312154      -0.000005509732
34 2      -3.513134452236      -3.513129895140      -2.458663160766       0.000000550529      -0.000029641832       0.000002288639
35 2      -3.513022629109      -3.513069903217      -2.458464855474       0.000000828255       0.000004210371      -0.000009524923
36 2      -3.513176231829      -3.513161751818      -2.458666896022       0.000014357077      -0.000023593465       0.000005529736
37 2      -3.513053048999      -3.513117371115      -2.458578548420      -0.000008790989       0.000000516060       0.000011178554
38 2      -3.513223469870      -3.513204212023      -2.458675950848       0.000002590246      -0.000015603251       0.000027317212
39 2      -3.513144436916      -3.513150622656      -2.458675066593       0.000008159109      -0.000015650797      -0.000002979309
40 2      -3.513082178200      -3.513109797207      -2.458558356198      -0.000018499550      -0.000016112032      -0.000010319013
41 2      -3.513282814218      -3.513230701552      -2.458830458300      -0.000014976182       0.000023385468       0.000031784652
42 2      -3.513026463526      -3.513131809554      -2.458512852766       0.000011247849      -0.000003472167      -0.000004176637
43 2      -3.513219338851      -3.513218916231      -2.458786591709      -0.000004110439       0.000032335079       0.000018523026
44 2      -3.513074022375      -3.513131715943      -2.458605551758       0.000003342008      -0.000005491384       0.000008687821
45 2      -3.513112266614      -3.513131069002      -2.458518604258       0.000001694905       0.000007164849      -0.000012312164
46 2      -3.513210558334      -3.513190058821      -2.458737338892       0.000017588340      -0.000015034969      -0.000006264987
47 2      -3.513019016422      -3.513119880191      -2.458485765403      -0.000021306590       0.000017423071      -0.000002215883
48 2      -3.513217173145      -3.513156048838      -2.458719874025      -0.000008325145       0.000021588810       0.000025345505
49 1       1.912019896595       2.764527485828       1.672026329795      -0.738261268355       0.594768373287       0.343387955514
50 1       3.190722699667       1.485803986659       1.672025660986      -0.000002289886       0.000003938821      -0.686770175742
51 1       1.912026866151       2.764512410525       1.672025741757       0.738276577819      -0.594774918116       0.343376655110
52 1       1.912007326577       2.764486894117       1.672005119736      -0.738262886928       0.594770439033       0.343381677804
53 1       1.912015070652       2.764559103939       1.672025518653       0.738280505839      -0.594771208590       0.343400430398
54 1       3.190719174047       1.485768927054       1.672013912526       0.000029681272      -0.000009747699      -0.686764369381
55 1       1.911997584373       2.764566198698       1.672036916027      -0.738273475332       0.594768642809       0.343402933161
56 1       3.190730841494       1.485776227132       1.672015691170      -0.000035459187       0.000010072101      -0.686760471194
57 1       1.912009316941       2.764499071260       1.672031111950       0.738271056069      -0.594764265324       0.343376765339
58 1       1.911992772243       2.764548600714       1.672028334411      -0.738249691347       0.594761192347       0.343393140057
59 1       1.912056211821       2.764527199969       1.672054482434       0.738283124194      -0.594780306033       0.343385083391
60 1       3.190750128625       1.485806407876       1.672029988038      -0.000028409136       0.000019153616      -0.686767066034
61 1       1.912074548856       2.764523684473       1.672049076630      -0.738284319902       0.594785485313       0.343382521465
62 1       3.190694456312       1.485777123367       1.672017027587       0.000029387063      -0.000016865295      -0.686769230209
63 1       1.911991428048       2.764534196907       1.672019222349       0.738265611259      -0.594764623133       0.343396836219
64 1       1.912065725202       2.764528940684       1.672035522557      -0.738280582216       0.594776368461       0.343376360489
65 1       1.912005429938       2.764524282234       1.672025221888       0.738259379957      -0.594765830173       0.343390787424
66 1       3.190773208416       1.485816232580       1.672023123603       0.000032737826      -0.000012218052      -0.686779306004
67 1       1.911980503359       2.764526043039       1.672062913132      -0.738270206858       0.594755074558       0.343387593165
68 1       3.190744564272       1.485807343341       1.672039577822      -0.000015607702       0.000012256078      -0.686769157570
69 1       1.912082914613       2.764513016901       1.672040201639       0.738298883566      -0.594777344004       0.343374413663
70 1       1.912049332875       2.764519839540       1.672031907357      -0.738279198671       0.594770174330       0.343372057347
71 1       1.911977248083       2.764522643546       1.672046196202       0.738277896861      -0.594755927773       0.343393089174
72 1       3.190703657628       1.485768697035       1.672041273665       0.000036694147      -0.000014371680      -0.686748844523
73 1       1.912010531642       2.764529889277       1.672046875961      -0.738253813478       0.594762104994       0.343394767601
74 1       3.190736272022       1.485785435243       1.672053276002      -0.000042382576       0.000018148141      -0.686745813489
75 1       1.912050356968       2.764509163957       1.672036487869       0.738267252985      -0.594769837710       0.343373241717
76 1       1.912020819489       2.764539114670       1.672065168629      -0.738252470073       0.594759657067       0.343389784788
77 1       1.912043545737       2.764509686373       1.672029279554       0.738292525470      -0.594786661990       0.343373182534
78 1       3.190704089846       1.485794062443       1.672046822337      -0.000073858121       0.000032894251      -0.686745339445
79 1       1.912026670178       2.764515107788       1.672030841953      -0.738282732269       0.594770401944       0.343381687299
80 1       3.190754992617       1.485792448141       1.672034815295       0.000054036278      -0.000025987270      -0.686764608988
81 1       1.911992550988       2.764527385131       1.672061684269       0.738248149722      -0.594740605221       0.343394371431
82 1       1.912060545434       2.764521626325       1.672061562705      -0.738300604431       0.594773416973       0.343369483325
83 1       1.912068971212       2.764552562641       1.672069139091       0.738275639471      -0.594775315268       0.343384750348
84 1       3.190741074153       1.485811224801       1.672043486908       0.000021303440      -0.000011139765      -0.686766458822
85 1       1.911996149007       2.764515157064       1.672021340990      -0.738278027784       0.594767146416       0.343391456483
86 1       3.190752718071       1.485830414636       1.672048161338      -0.000028679907       0.000013821413      -0.686775031192
87 1       1.911983792960       2.764514837290       1.672042274785       0.738270936293      -0.594750362645       0.343374847973
88 1       1.912062027933       2.764512939285       1.672034201144      -0.738294082983       0.594773336922       0.343370302345
89 1       1.912014429432       2.764569511074       1.672039200620       0.738290894575      -0.594774657549       0.343398591448
90 1       3.190715012612       1.485777581050       1.672038365839       0.000025175411      -0.000007112125      -0.686764093413
91 1       1.912003734792       2.764582737121       1.672069033339      -0.738288490681       0.594764334325       0.343390520229
92 1       3.190744808344       1.485778256047       1.672021290424      -0.000031232281       0.000005516254      -0.686765473339
93 1       1.912027864323       2.764513515953       1.672043860611       0.738277369846      -0.594773268797       0.343373674727
94 1       1.911984885100       2.764550336966       1.672049086316      -0.738261936275       0.594758174093       0.343382796423
95 1       1.912056875403       2.764532612950       1.672074428161       0.738297966513      -0.594783243381       0.343373338315
96 1       3.190740028402       1.485795084318       1.672024540902      -0.000027807658       0.000015491627      -0.686769732207
97 1       1.912070158921       2.764529464838       1.672060525751      -0.738295890961       0.594785505697       0.343380177828
98 1       3.190720446939       1.485801480771       1.672046866008       0.000018892510      -0.000015274522      -0.686767545167
99 1       1.911976768176       2.764540063817       1.672016490158       0.738257361019      -0.594746404323       0.343404383731
100 1       1.912013596949       2.764492726027       1.672014545123      -0.738264681732       0.594775371950       0.343382277489
101 1       1.911990344065       2.764529062678       1.672051127372       0.738278775695      -0.594763483649       0.343376234401
102 1       3.190733323506       1.485806231947       1.672021367122       0.000002230331      -0.000006184894      -0.686764618920
103 1       1.912040036647       2.764544555627       1.672061796286      -0.738275715690       0.594766030672       0.343389222523
104 1       3.190694539134       1.485796416901       1.672032133271      -0.000012657805       0.000007893414      -0.686768906900
105 1       1.912061380378       2.764516329518       1.672050519902       0.738285783657      -0.594778299428       0.343369674255
106 1       1.912006573204       2.764520640404       1.672040664777      -0.738274556091       0.594751594025       0.343371465632
107 1       1.911971727941       2.764530272093       1.672058203026       0.738261552744      -0.594742634602       0.343397275704
108 1       3.190742605021       1.485777135627       1.672043874197       0.000041379758      -0.000020311453      -0.686747337100
109 1       1.912002445630       2.764533255068       1.672056987442      -0.738275701619       0.594764414579       0.343385518030
110 1       3.190738460059       1.485800341703       1.672080817770      -0.000037783962       0.000011134666      -0.686748088331
111 1       1.912079666761       2.764532918558       1.672046240091       0.738281477453      -0.594769495168       0.343371658294
112 1       1.911991769402       2.764517308596       1.672061074971      -0.738254593526       0.594758967796       0.343389913543
113 1       1.912081346957       2.764528389010       1.672052475196       0.738302312050      -0.594792420838       0.343372939273
114 1       3.190736240063       1.485802468180       1.672051729401      -0.000038138135       0.000015474306      -0.686752024824
115 1       1.912063722842       2.764545996216       1.672046009523      -0.738313758740       0.594771988983       0.343370745043
116 1       3.190768259980       1.485812995578       1.672054283175       0.000040528238      -0.000021028784      -0.686775063914
117 1       1.912028403726       2.764531562438       1.672054757879       0.738264694415      -0.594758979803       0.343392798465
118 1       1.912050937391       2.764517828811       1.672052404769      -0.738286607043       0.594780613704       0.343371450066
119 1       1.912032169988       2.764526759813       1.672054540661       0.738264368134      -0.594769660492       0.343385516565
120 1       3.190738844026       1.485825188413       1.672067623311       0.000021327959      -0.000013339695      -0.686767357801
