ITEM: TIMESTEP
0
ITEM: NUMBER OF ATOMS
120
ITEM: BOX BOUNDS xy xz yz pp pp pp
-5.0637156020000003e+00 1.0127431204000001e+01 -5.0637156020000003e+00
0.0000000000000000e+00 8.7706135340000007e+00 0.0000000000000000e+00
0.0000000000000000e+00 1.3631884907000000e+01 0.0000000000000000e+00
ITEM: ATOMS id type c_pe_atom
1 2      -4.300050612654
2 2      -4.300030400797
3 2      -4.300090088869
4 2      -4.300174529700
5 2      -4.299956896089
6 2      -4.300161473934
7 2      -4.299942318084
8 2      -4.299995551780
9 2      -4.300184727656
10 2      -4.300068301672
11 2      -4.300157268980
12 2      -4.300011596454
13 2      -4.300009932396
14 2      -4.299926376661
15 2      -4.300079760889
16 2      -4.300149179831
17 2      -4.299954129912
18 2      -4.300144497675
19 2      -4.299892614813
20 2      -4.299975851803
21 2      -4.300177077950
22 2      -4.300073343728
23 2      -4.300090366507
24 2      -4.300012995750
25 2      -4.299992469130
26 2      -4.299966235838
27 2      -4.300036619597
28 2      -4.300057125598
29 2      -4.299928560032
30 2      -4.300103728775
31 2      -4.299900145280
32 2      -4.300008299639
33 2      -4.300104358732
34 2      -4.300027264455
35 2      -4.300165042153
36 2      -4.299992832897
37 2      -4.300073169499
38 2      -4.299920776294
39 2      -4.300007573304
40 2      -4.300162024754
41 2      -4.299856288717
42 2      -4.300119456640
43 2      -4.299879527139
44 2      -4.300058553631
45 2      -4.300110476443
46 2      -4.299992703181
47 2      -4.300134307434
48 2      -4.299965054288
49 1      -7.034297957393
50 1      -7.034305928600
51 1      -7.034312411016
52 1      -7.034430433176
53 1      -7.034423731311
54 1      -7.034327760250
55 1      -7.034426490098
56 1      -7.034362747255
57 1      -7.034411569943
58 1      -7.034340772509
59 1      -7.034385991174
60 1      -7.034339919455
61 1      -7.034359964946
62 1      -7.034330502205
63 1      -7.034331479674
64 1      -7.034382223623
65 1      -7.034306777438
66 1      -7.034337429528
67 1      -7.034292351597
68 1      -7.034293925823
69 1      -7.034332404442
70 1      -7.034349332383
71 1      -7.034400697073
72 1      -7.034341297236
73 1      -7.034429847735
74 1      -7.034346594228
75 1      -7.034397612309
76 1      -7.034349848387
77 1      -7.034426071815
78 1      -7.034298498283
79 1      -7.034353140828
80 1      -7.034311456147
81 1      -7.034293090323
82 1      -7.034292303608
83 1      -7.034334657578
84 1      -7.034296790563
85 1      -7.034384231192
86 1      -7.034337343470
87 1      -7.034311719016
88 1      -7.034441419196
89 1      -7.034473545676
90 1      -7.034362918752
91 1      -7.034448573621
92 1      -7.034427788102
93 1      -7.034442651517
94 1      -7.034400319212
95 1      -7.034441043075
96 1      -7.034398028211
97 1      -7.034421072172
98 1      -7.034324926866
99 1      -7.034367330334
100 1      -7.034325889361
101 1      -7.034308956182
102 1      -7.034298648063
103 1      -7.034286673033
104 1      -7.034341052842
105 1      -7.034297869663
106 1      -7.034379605815
107 1      -7.034400461950
108 1      -7.034320856742
109 1      -7.034507659182
110 1      -7.034389921687
111 1      -7.034454328662
112 1      -7.034383739452
113 1      -7.034418040133
114 1      -7.034345810858
115 1      -7.034369578598
116 1      -7.034383844846
117 1      -7.034354306949
118 1      -7.034302218464
119 1      -7.034321011231
120 1      -7.034347825798
