ITEM: TIMESTEP
0
ITEM: NUMBER OF ATOMS
40
ITEM: BOX BOUNDS pp pp pp
0.0000000000000000e+00 8.7493184070000005e+00
0.0000000000000000e+00 5.0950027650000003e+00
0.0000000000000000e+00 9.3620277830000003e+00
ITEM: ATOMS id type x y z fx fy fz
1 2       1.373860000000       1.575750000000       8.310530000000       0.078017365576       0.036257774387       0.058003077541
2 2       3.109210000000       4.123250000000       8.310540000000      -0.077945117946       0.036206195187       0.057923818413
3 2       5.759520000000       0.902570000000       7.477390000000      -0.037644985036       0.024172154813      -0.097942547998
4 2       7.472870000000       3.450080000000       7.477390000000       0.037458922472       0.023978499352      -0.097932745758
5 2       4.708160000000       3.450760000000       5.582870000000       0.110996751135      -0.106865167611       0.161658962481
6 2       1.469500000000       3.499130000000       5.706440000000       0.066709084516      -0.174193372482       0.195250920215
7 2       3.013560000000       0.951630000000       5.706430000000      -0.066639921873      -0.174240604281       0.195333836852
8 2       8.524230000000       0.903260000000       5.582870000000      -0.110991948459      -0.107001358163       0.161616603375
9 2       1.384810000000       1.644670000000       2.796380000000      -0.036740655920      -0.023778970243      -0.098529815774
10 2       3.098270000000       4.192170000000       2.796390000000       0.036674458438      -0.023839144764      -0.098642208979
11 2       5.747840000000       0.972390000000       3.629560000000       0.075543049144      -0.035605270256       0.059372805733
12 2       7.484550000000       3.519890000000       3.629560000000      -0.075580613920      -0.035651792131       0.059341035035
13 2       4.150220000000       1.644580000000       0.902010000000      -0.110469303045       0.109803867766       0.163861175181
14 2       5.843720000000       4.143190000000       1.025230000000       0.073139147272       0.178378509056       0.198129276511
15 2       7.388670000000       1.595690000000       1.025230000000      -0.073090255871       0.178360230521       0.198143514516
16 2       0.332850000000       4.192090000000       0.902010000000       0.110485672940       0.109742313441       0.164012039462
17 1       7.307940000000       1.773870000000       4.415980000000       0.036336460527      -0.040947274862       0.039173530641
18 1       0.034630000000       0.773040000000       0.035240000000       0.048356184039      -0.098065137492      -0.023425460661
19 1       7.341190000000       0.098700000000       6.918400000000      -0.049931281943       0.050863108781      -0.055056850200
20 1       7.271050000000       4.956770000000       2.128000000000       0.097003232729      -0.023645444836      -0.123953725243
21 1       5.924450000000       4.321380000000       4.415980000000      -0.036345938966      -0.041103781039       0.039190921306
22 1       7.413790000000       3.333660000000       9.346880000000      -0.028628619244      -0.099231310424      -0.110607348754
23 1       5.891190000000       2.646200000000       6.918400000000       0.050153666373       0.050855300221      -0.054950118681
24 1       5.961350000000       2.409270000000       2.128000000000      -0.097080185190      -0.023639356968      -0.123874983920
25 1       1.443580000000       1.761190000000       4.665930000000       0.029085358695       0.098838416071      -0.109568499186
26 1       2.933750000000       0.774100000000       9.097350000000       0.035540701076       0.040272507150       0.037976309119
27 1       1.587770000000       0.137480000000       6.809730000000      -0.098386414484       0.021272765849      -0.118796979263
28 1       1.516640000000       4.996070000000       2.237540000000       0.048163824997      -0.051111409307      -0.056022619278
29 1       0.074260000000       4.322440000000       4.716450000000      -0.048370741902       0.095935983182      -0.022808138937
30 1       1.549320000000       3.321600000000       9.097360000000      -0.035570418762       0.040262473878       0.037911863192
31 1       0.156360000000       2.427480000000       6.869150000000      -0.147485784972       0.039723782604      -0.048567969170
32 1       8.701070000000       2.667190000000       2.188430000000       0.147278472549      -0.041658452227      -0.048302587579
33 1       4.408810000000       1.774940000000       4.716460000000       0.048409228959       0.095888037875      -0.022967523069
34 1       5.818590000000       0.786150000000       9.346880000000       0.028695546479      -0.099174468040      -0.110564073108
35 1       4.326710000000       4.974980000000       6.869150000000       0.147393219598       0.039681490770      -0.048595872428
36 1       4.531320000000       0.119690000000       2.188430000000      -0.147234890907      -0.041634696229      -0.048290598491
37 1       3.039490000000       4.308690000000       4.665930000000      -0.029058648466       0.098834554537      -0.109466276524
38 1       4.448440000000       3.320540000000       0.035240000000      -0.048322094979      -0.098132205498      -0.023343603118
39 1       2.895290000000       2.684980000000       6.809740000000       0.098309794425       0.021264153979      -0.118805066148
40 1       2.966440000000       2.448570000000       2.237530000000      -0.048232320055      -0.051072902566      -0.055884077306
