ITEM: TIMESTEP
0
ITEM: NUMBER OF ATOMS
40
ITEM: BOX BOUNDS pp pp pp
0.0000000000000000e+00 8.7493184070000005e+00
0.0000000000000000e+00 5.0950027650000003e+00
0.0000000000000000e+00 9.3620277830000003e+00
ITEM: ATOMS id type c_pe_atom
1 2      -4.676063117882
2 2      -4.676044504116
3 2      -4.265095812317
4 2      -4.265102748176
5 2      -4.809910472844
6 2      -4.620090220535
7 2      -4.620089122526
8 2      -4.809918673507
9 2      -4.264776691398
10 2      -4.264777369273
11 2      -4.675060724519
12 2      -4.675063746771
13 2      -4.810854168290
14 2      -4.620210834204
15 2      -4.620209121521
16 2      -4.810859643229
17 1     -11.282141537729
18 1     -11.268300049860
19 1     -11.202088548540
20 1     -10.654119869573
21 1     -11.282140615622
22 1     -11.179994840868
23 1     -11.202081686736
24 1     -10.654129894071
25 1     -11.179980105838
26 1     -11.281854929082
27 1     -10.653642280265
28 1     -11.201955452618
29 1     -11.268732661607
30 1     -11.281848720051
31 1     -11.125956622691
32 1     -11.125868246133
33 1     -11.268738820742
34 1     -11.179995764994
35 1     -11.125945654705
36 1     -11.125873386157
37 1     -11.179979804021
38 1     -11.268291729476
39 1     -10.653622847942
40 1     -11.201964432758
