40
Config_type=bulk_kappa_phase Weight=1.0 Lattice="8.749318407 0.000000000 0.000000000 0.000000000 5.095002765 0.000000000 0.000000000 0.000000000 9.362027783" Energy=-340.43143980 Virial="8.39107 -0.00046 -0.00172 -0.00046 8.90730 0.01220 -0.00172 0.01220 8.17377" pbc="T T T" Properties=species:S:1:pos:R:3:forces:R:3
Ga	      1.37386      1.57575      8.31053        -0.000033     -0.005884      0.008926
Ga	      3.10921      4.12325      8.31054         0.001007     -0.006587      0.008548
Ga	      5.75952      0.90257      7.47739        -0.002455      0.017160     -0.013539
Ga	      7.47287      3.45008      7.47739         0.003430      0.017795     -0.013439
Ga	      4.70816      3.45076      5.58287        -0.005772     -0.003543     -0.005417
Ga	      1.46950      3.49913      5.70644        -0.010644     -0.008204     -0.009447
Ga	      3.01356      0.95163      5.70643         0.010649     -0.008701     -0.008453
Ga	      8.52423      0.90326      5.58287         0.005491     -0.002643     -0.005042
Ga	      1.38481      1.64467      2.79638        -0.002017     -0.016426     -0.015772
Ga	      3.09827      4.19217      2.79639         0.003227     -0.017053     -0.014124
Ga	      5.74784      0.97239      3.62956         0.000814      0.004550      0.009097
Ga	      7.48455      3.51989      3.62956         0.000455      0.005242      0.008960
Ga	      4.15022      1.64458      0.90201         0.005477      0.002944     -0.003990
Ga	      5.84372      4.14319      1.02523        -0.005914      0.010803     -0.007275
Ga	      7.38867      1.59569      1.02523         0.004924      0.011620     -0.006764
Ga	      0.33285      4.19209      0.90201        -0.004593      0.002663     -0.004120
O	      7.30794      1.77387      4.41598        -0.008354      0.001679      0.010122
O	      0.03463      0.77304      0.03524        -0.006892     -0.009100     -0.002385
O	      7.34119      0.09870      6.91840        -0.012952      0.004113      0.002799
O	      7.27105      4.95677      2.12800        -0.002146     -0.001894      0.009328
O	      5.92445      4.32138      4.41598         0.007852      0.001228      0.010302
O	      7.41379      3.33366      9.34688         0.004539     -0.000135     -0.003611
O	      5.89119      2.64620      6.91840         0.013588      0.004057      0.003033
O	      5.96135      2.40927      2.12800         0.000449     -0.001165      0.009710
O	      1.44358      1.76119      4.66593        -0.003254      0.000295     -0.002006
O	      2.93375      0.77410      9.09735        -0.009030     -0.001200      0.009077
O	      1.58777      0.13748      6.80973        -0.001102      0.001177      0.010363
O	      1.51664      4.99607      2.23754         0.011995     -0.003909      0.002104
O	      0.07426      4.32244      4.71645         0.006897      0.007729     -0.001737
O	      1.54932      3.32160      9.09736         0.008132     -0.001466      0.009555
O	      0.15636      2.42748      6.86915         0.001476      0.008805      0.000809
O	      8.70107      2.66719      2.18843        -0.000847     -0.009057      0.000466
O	      4.40881      1.77494      4.71646        -0.007351      0.007709     -0.001764
O	      5.81859      0.78615      9.34688        -0.004318     -0.000029     -0.003295
O	      4.32671      4.97498      6.86915        -0.001696      0.008822      0.001138
O	      4.53132      0.11969      2.18843         0.000890     -0.009172      0.000009
O	      3.03949      4.30869      4.66593         0.003368      0.000288     -0.002136
O	      4.44844      3.32054      0.03524         0.006323     -0.009428     -0.002534
O	      2.89529      2.68498      6.80974         0.000561      0.001335      0.010513
O	      2.96644      2.44857      2.23753        -0.012174     -0.004417      0.001989
