ITEM: TIMESTEP
0
ITEM: NUMBER OF ATOMS
40
ITEM: BOX BOUNDS pp pp pp
0.0000000000000000e+00 8.6612970950000001e+00
0.0000000000000000e+00 5.0437451920000003e+00
0.0000000000000000e+00 9.2678423920000004e+00
ITEM: ATOMS id type c_pe_atom
1 2      -4.494631425148
2 2      -4.494621368920
3 2      -4.037955637840
4 2      -4.037957513768
5 2      -4.645069474309
6 2      -4.428869935873
7 2      -4.428865763698
8 2      -4.645085860442
9 2      -4.037785601142
10 2      -4.037792839831
11 2      -4.493943241392
12 2      -4.493959879073
13 2      -4.645786751545
14 2      -4.428991589024
15 2      -4.428996357499
16 2      -4.645788898482
17 1     -11.400468795028
18 1     -11.375116208340
19 1     -11.311300697020
20 1     -10.754067912780
21 1     -11.400494481826
22 1     -11.290549959203
23 1     -11.311292032700
24 1     -10.754072063268
25 1     -11.290379555638
26 1     -11.400054387126
27 1     -10.753747661990
28 1     -11.311305853013
29 1     -11.375410474158
30 1     -11.400055884078
31 1     -11.220718280096
32 1     -11.220670765849
33 1     -11.375428986568
34 1     -11.290545346913
35 1     -11.220717993804
36 1     -11.220672587041
37 1     -11.290382910477
38 1     -11.375118720007
39 1     -10.753734339038
40 1     -11.311319719526
