40
Config_type=bulk_kappa_phase Weight=1.0 Lattice="8.661297095 0.000000000 0.000000000 0.000000000 5.043745192 0.000000000 0.000000000 0.000000000 9.267842392" Energy=-339.91839080 Virial="23.18721 -0.00048 0.00576 -0.00048 24.76056 0.00417 0.00576 0.00417 22.24527" pbc="T T T" Properties=species:S:1:pos:R:3:forces:R:3
Ga	      1.36286      1.55733      8.22481         0.003535     -0.006270     -0.003727
Ga	      3.07511      4.07920      8.22482        -0.002705     -0.006432     -0.003580
Ga	      5.69489      0.90178      7.39875         0.003026      0.022633     -0.014993
Ga	      7.40437      3.42365      7.39875        -0.001930      0.023618     -0.015717
Ga	      4.65469      3.41427      5.52687         0.001259      0.010450     -0.004381
Ga	      1.45598      3.46158      5.64867        -0.005513     -0.011649      0.005624
Ga	      2.98198      0.93971      5.64867         0.004751     -0.011376      0.006108
Ga	      8.44458      0.89239      5.52688         0.000123      0.010576     -0.004708
Ga	      1.36424      1.61992      2.76479         0.003867     -0.025830     -0.014941
Ga	      3.07374      4.14179      2.76480        -0.002385     -0.025124     -0.015553
Ga	      5.69305      0.96489      3.59091         0.001705      0.007296     -0.003582
Ga	      7.40621      3.48676      3.59090        -0.001467      0.007060     -0.004767
Ga	      4.11437      1.62981      0.89316        -0.000716     -0.010268     -0.004331
Ga	      5.78648      4.10413      1.01452        -0.004527      0.010377      0.006518
Ga	      7.31279      1.58226      1.01451         0.003955      0.010623      0.006707
Ga	      0.32360      4.15168      0.89316        -0.000512     -0.010447     -0.003648
O	      7.23284      1.76149      4.38314        -0.004206      0.009828      0.017320
O	      0.02339      0.76181      0.01648        -0.010380     -0.005012      0.002733
O	      7.27164      0.11105      6.84937        -0.007400      0.003211     -0.000322
O	      7.20867      4.92166      2.11812        -0.004817     -0.012111      0.003213
O	      5.86642      4.28336      4.38313         0.004527      0.009976      0.017464
O	      7.33618      3.30380      9.25389         0.003417      0.008063     -0.011376
O	      5.82762      2.63292      6.84938         0.007356      0.003306     -0.000344
O	      5.89060      2.39978      2.11812         0.005459     -0.012102      0.003061
O	      1.43219      1.73994      4.62009        -0.004501     -0.007739     -0.012048
O	      2.90249      0.76074      9.01738        -0.004065     -0.011155      0.016040
O	      1.56059      0.12152      6.75258         0.005228      0.013037      0.003050
O	      1.49693      4.93236      2.21568         0.006761     -0.000413      0.000119
O	      0.08431      4.28229      4.65057         0.007880      0.003456      0.000998
O	      1.53547      3.28261      9.01738         0.004535     -0.011084      0.016357
O	      0.16343      2.40743      6.79960        -0.012841      0.006656      0.007578
O	      8.60502      2.63594      2.16578         0.011035     -0.005639      0.006941
O	      4.35366      1.76041      4.65058        -0.007437      0.003478      0.000923
O	      5.76308      0.78193      9.25389        -0.004439      0.007818     -0.010980
O	      4.27453      4.92930      6.79959         0.011424      0.006987      0.006951
O	      4.49425      0.11407      2.16578        -0.012175     -0.005547      0.007023
O	      3.00578      4.26181      4.62010         0.002958     -0.007882     -0.012393
O	      4.41458      3.28368      0.01648         0.010502     -0.005030      0.002963
O	      2.87737      2.64339      6.75259        -0.004394      0.013296      0.003488
O	      2.94105      2.41048      2.21568        -0.006892     -0.000634      0.000213
