ITEM: TIMESTEP
0
ITEM: NUMBER OF ATOMS
40
ITEM: BOX BOUNDS pp pp pp
0.0000000000000000e+00 8.6612970950000001e+00
0.0000000000000000e+00 5.0437451920000003e+00
0.0000000000000000e+00 9.2678423920000004e+00
ITEM: ATOMS id type x y z fx fy fz
1 2       1.362860000000       1.557330000000       8.224810000000       0.042979304831       0.073067388925       0.026636448239
2 2       3.075110000000       4.079200000000       8.224820000000      -0.042995573568       0.073071924778       0.026592625418
3 2       5.694890000000       0.901780000000       7.398750000000      -0.038524012401       0.057247963662      -0.105204705325
4 2       7.404370000000       3.423650000000       7.398750000000       0.038444702241       0.057415632571      -0.105193970249
5 2       4.654690000000       3.414270000000       5.526870000000       0.067696471502      -0.032229923183       0.193541766013
6 2       1.455980000000       3.461580000000       5.648670000000       0.043100710925      -0.230741325427       0.161399356749
7 2       2.981980000000       0.939710000000       5.648670000000      -0.043047508317      -0.230737079442       0.161408252055
8 2       8.444580000000       0.892390000000       5.526880000000      -0.067712936409      -0.032117187832       0.193328086780
9 2       1.364240000000       1.619920000000       2.764790000000      -0.037672172345      -0.058712731052      -0.103673196045
10 2       3.073740000000       4.141790000000       2.764800000000       0.037530033095      -0.058721804599      -0.103755032551
11 2       5.693050000000       0.964890000000       3.590910000000       0.040193932409      -0.070657389109       0.027112945584
12 2       7.406210000000       3.486760000000       3.590900000000      -0.040061831495      -0.070682289657       0.027199113358
13 2       4.114370000000       1.629810000000       0.893160000000      -0.068157003402       0.033461159038       0.192168331654
14 2       5.786480000000       4.104130000000       1.014520000000       0.042784394765       0.232061095186       0.161308886328
15 2       7.312790000000       1.582260000000       1.014510000000      -0.042839533306       0.232043535993       0.161367274172
16 2       0.323600000000       4.151680000000       0.893160000000       0.068167467297       0.033596586938       0.192279305434
17 1       7.232840000000       1.761490000000       4.383140000000       0.056100442592      -0.043430683665       0.054525876030
18 1       0.023390000000       0.761810000000       0.016480000000       0.013850240581      -0.090858971318      -0.022647569159
19 1       7.271640000000       0.111050000000       6.849370000000      -0.075621948525       0.014381077944      -0.027256540686
20 1       7.208670000000       4.921660000000       2.118120000000       0.113369452825       0.059930459523      -0.146397766689
21 1       5.866420000000       4.283360000000       4.383130000000      -0.056054155458      -0.043442094685       0.054512243019
22 1       7.336180000000       3.303800000000       9.253890000000      -0.085228666728      -0.170671423227      -0.009993679975
23 1       5.827620000000       2.632920000000       6.849380000000       0.075530295166       0.014579035228      -0.027428555039
24 1       5.890600000000       2.399780000000       2.118120000000      -0.113358689745       0.060050730611      -0.146378780198
25 1       1.432190000000       1.739940000000       4.620090000000       0.085089177105       0.169774431849      -0.011532805955
26 1       2.902490000000       0.760740000000       9.017380000000       0.056288077530       0.041716975571       0.053572882621
27 1       1.560590000000       0.121520000000       6.752580000000      -0.112764576604      -0.061412308257      -0.145127421542
28 1       1.496930000000       4.932360000000       2.215680000000       0.074826832720      -0.012230987680      -0.026876322684
29 1       0.084310000000       4.282290000000       4.650570000000      -0.016837249788       0.089308997792      -0.024162846693
30 1       1.535470000000       3.282610000000       9.017380000000      -0.056177668939       0.041788076293       0.053566504340
31 1       0.163430000000       2.407430000000       6.799600000000      -0.112737339029       0.027970762605      -0.123998147098
32 1       8.605020000000       2.635940000000       2.165780000000       0.110845788918      -0.028523415120      -0.123322751102
33 1       4.353660000000       1.760410000000       4.650580000000       0.016801613252       0.089446961216      -0.024160107720
34 1       5.763080000000       0.781930000000       9.253890000000       0.085245168801      -0.170691567018      -0.010037779334
35 1       4.274530000000       4.929300000000       6.799590000000       0.112858006560       0.028004819303      -0.123867347837
36 1       4.494250000000       0.114070000000       2.165780000000      -0.110863966691      -0.028591663589      -0.123296893188
37 1       3.005780000000       4.261810000000       4.620100000000      -0.085084897567       0.169734789230      -0.011677395379
38 1       4.414580000000       3.283680000000       0.016480000000      -0.013800681052      -0.090778013798      -0.022596183385
39 1       2.877370000000       2.643390000000       6.752590000000       0.112635275570      -0.061435532363      -0.145149471715
40 1       2.941050000000       2.410480000000       2.215680000000      -0.074796977316      -0.011986013233      -0.026784628245
