ITEM: TIMESTEP
0
ITEM: NUMBER OF ATOMS
20
ITEM: BOX BOUNDS xy xz yz pp pp pp
-1.3902624638979999e+00 1.2460447112405999e+01 0.0000000000000000e+00
0.0000000000000000e+00 3.0857209330000002e+00 -1.3902624638979999e+00
0.0000000000000000e+00 5.7126468587139998e+00 0.0000000000000000e+00
ITEM: ATOMS id type c_pe_atom
1 2      -5.711618013454
2 2      -5.711616170584
3 2      -8.977542072632
4 2      -8.977569263123
5 2      -5.711648462256
6 2      -5.711692459464
7 2      -8.977570953625
8 2      -8.977500229187
9 1      -3.919656541354
10 1      -3.919715229731
11 1      -7.321986435460
12 1      -7.321935186090
13 1      -3.917678137516
14 1      -3.917569184380
15 1      -3.919670514778
16 1      -3.919647566951
17 1      -7.321948883999
18 1      -7.321988439734
19 1      -3.917596985883
20 1      -3.917599601382
