ITEM: TIMESTEP
0
ITEM: NUMBER OF ATOMS
160
ITEM: BOX BOUNDS pp pp pp
0.0000000000000000e+00 8.4170517050000004e+00
0.0000000000000000e+00 8.4170517050000004e+00
0.0000000000000000e+00 2.5251155113999999e+01
ITEM: ATOMS id type x y z fx fy fz
1 2       1.220160000000       5.223820000000      22.210300000000      -0.388745786475       0.156221444105      -0.047278602054
2 2       5.229050000000       0.850860000000      13.745180000000       0.031323462978       0.034080739657      -0.231521748726
3 2       7.194810000000       7.441110000000       7.427660000000      -0.014978364209      -0.194918705456      -0.201738934969
4 2       7.326130000000       7.172160000000      15.850950000000       0.011804313402       0.509062754738       0.071556384189
5 2       5.253430000000       5.276690000000       0.987070000000       0.303735544485       0.020599933301      -0.066343478130
6 2       3.047220000000       3.221760000000       7.246720000000       0.172051396463      -0.140936734370       0.114616862034
7 2       0.957620000000       1.053840000000       1.094520000000       0.086004275223       0.121058572888      -0.121500944137
8 2       5.196810000000       1.033770000000       5.270520000000      -0.012139380794       0.149179593905      -0.127156979991
9 2       3.198910000000       2.983120000000      15.734960000000      -0.073062015937       0.126780959615       0.015057832030
10 2       5.411310000000       1.123340000000      22.024280000000       0.000226224551       0.020776211920       0.244418079672
11 2       3.155850000000       7.289950000000      11.573730000000      -0.117712107471       0.084412232461      -0.072185607413
12 2       7.463420000000       3.211770000000      19.915350000000      -0.120484325475      -0.417198995673       0.075660942172
13 2       1.024990000000       5.125720000000      13.553800000000      -0.029384490130       0.252001907613       0.105689684420
14 2       7.364170000000       3.238360000000       3.221080000000      -0.333462344605      -0.042094064347       0.074413683981
15 2       5.121550000000       5.358190000000       9.419660000000       0.242404880593      -0.048613365682       0.184412396514
16 2       7.397680000000       7.479100000000      24.226880000000       0.014629165954      -0.198304964604      -0.040205010882
17 2       3.210560000000       7.490430000000      20.031810000000       0.085406642416      -0.197031710714      -0.094224170778
18 2       0.920070000000       1.079940000000       9.573890000000       0.125387405901      -0.203963656824      -0.178508448687
19 2       3.242800000000       7.462480000000       3.116720000000      -0.094114495469      -0.119149027633       0.058377885297
20 2       1.185200000000       1.039380000000      17.913110000000      -0.242268168633      -0.084652371300      -0.107791141864
21 2       3.952210000000       0.190670000000       8.427700000000       0.071900834412      -0.039246305899       0.021052032865
22 2       6.169600000000       6.146930000000      12.604390000000       0.337233463615      -0.009500684535      -0.189009292979
23 2       2.172380000000       2.142130000000      21.057440000000      -0.003234407426      -0.123683946156       0.061737939666
24 2       6.440890000000       6.329270000000      21.010920000000      -0.010211015637       0.019446852837       0.388332383801
25 2       1.972570000000       6.436010000000       8.329230000000      -0.124551660876      -0.209225525711      -0.037593263797
26 2       8.366210000000       2.072900000000       6.273770000000      -0.267839021978      -0.168946244089       0.130322474071
27 2       2.006200000000       2.107810000000       4.246470000000       0.147960962005      -0.096789853769      -0.243346603526
28 2       0.054250000000       2.027660000000      14.696160000000      -0.123149219079      -0.076089472491       0.372705688783
29 2       0.163960000000       6.239730000000      18.892910000000       0.050067056654       0.346896638106       0.304462513062
30 2       6.301320000000       0.054620000000       2.114720000000       0.034737736431      -0.009140530384      -0.068669327554
31 2       6.127540000000       0.071610000000      10.583020000000       0.440624230727      -0.129399594763       0.215907245821
32 2       4.193990000000       2.211560000000      18.889560000000       0.341353143356       0.066125087415      -0.228719346340
33 2       6.445170000000       8.383690000000      18.946480000000      -0.249410287985       0.464731517131      -0.245180896288
34 2       6.389960000000       2.056310000000      16.814370000000      -0.070460025657      -0.483542882625       0.288578549115
35 2       0.162590000000       2.074120000000      23.205150000000      -0.051910964359       0.267207451812       0.091407856026
36 2       2.045750000000       8.207960000000      14.823390000000      -0.126794540518       0.086823072757       0.041389718334
37 2       4.029290000000       6.061580000000      14.735960000000       0.163217361030       0.079545189524       0.127318101381
38 2       6.275590000000       4.225150000000       6.340800000000      -0.287454585975       0.188638426973      -0.316263779803
39 2       4.234780000000       6.417060000000      23.187300000000       0.347306650917       0.415284802457      -0.150682641192
40 2       0.098200000000       4.211350000000      16.829840000000       0.153043255989      -0.323680378284      -0.133321080157
41 2       2.094610000000       4.260070000000       2.104110000000       0.002190896027       0.002921355994      -0.008444761915
42 2       4.152190000000       4.331430000000      20.989100000000       0.282270872419      -0.056595027422      -0.291953313585
43 2       4.161470000000       8.225760000000      16.895430000000       0.455098371010       0.120442533443       0.207280974866
44 2       6.342070000000       4.262090000000      23.091890000000       0.412604363255      -0.095348193601       0.342986804261
45 2       8.352610000000       6.245100000000      10.496070000000      -0.161086684504       0.259054817615       0.272050510277
46 2       8.402750000000       8.344100000000      12.649620000000      -0.166909756085      -0.170662715076      -0.200182934698
47 2       0.024390000000       4.301530000000       0.044190000000      -0.371144020784      -0.089962617553      -0.335589680237
48 2       6.247250000000       4.086020000000      14.703530000000       0.143167064956       0.014126176665      -0.323245417066
49 2       4.166230000000       4.212890000000       4.164180000000       0.369021047508       0.134988147836       0.303546629615
50 2       2.136450000000       2.044640000000      12.554210000000       0.274606971892      -0.209469977472       0.234330006214
51 2       2.104100000000       4.135090000000      10.537060000000       0.124469577533       0.283002631745      -0.214929025633
52 2       0.041640000000       6.471460000000       2.206580000000       0.059399330332      -0.230218210587       0.033681907182
53 2       0.203600000000       8.375200000000      21.145100000000      -0.234405769545      -0.047084626443       0.010679380773
54 2       4.144780000000       2.046050000000       1.994550000000      -0.049149477265       0.228732295226      -0.001574725326
55 2       6.236170000000       2.061370000000      25.201560000000      -0.056627843129       0.289334453262      -0.148419868671
56 2       8.395450000000       4.155060000000       8.414890000000      -0.070061718528       0.124974008365      -0.025742930593
57 2       6.114700000000       2.174210000000       8.518420000000       0.188612343899       0.126240838731      -0.000591294480
58 2       4.041440000000       6.453160000000       6.256870000000       0.062139115131      -0.384463343563      -0.250510181562
59 2       6.370550000000       6.457600000000       4.264760000000       0.083907295841      -0.371891290375       0.131028540306
60 2       2.192850000000       6.415860000000      25.223090000000      -0.246123783237       0.098570009625       0.183075456278
61 2       5.188240000000       3.135950000000      11.617840000000      -0.139905452619      -0.029233928819       0.028767994973
62 2       3.192650000000       1.075130000000      24.175920000000       0.114241914633      -0.271498827155       0.071680103656
63 2       3.181590000000       5.199700000000      17.879160000000      -0.015566697189      -0.022428382510      -0.026204641295
64 2       0.992210000000       7.436200000000       5.257600000000      -0.029492848334       0.138392122864      -0.064217860415
65 1       2.131980000000       2.151800000000       2.129890000000       0.252612486031       0.152550348737       0.232051587302
66 1       6.183790000000       6.261050000000       6.275800000000       0.065426680563      -0.092942731648      -0.172355911604
67 1       4.280390000000       8.347220000000       6.460190000000       0.012181046903       0.120657498401      -0.129591298056
68 1       4.329070000000       0.129200000000       2.106250000000      -0.035694723806      -0.009860882236       0.001288969004
69 1       8.295180000000       6.405030000000       4.138080000000       0.275376981928      -0.002581304554       0.238964516216
70 1       0.033780000000       2.201770000000       4.295620000000       0.171112968873      -0.054750011509       0.177734399327
71 1       6.223030000000       4.183920000000       8.387000000000       0.247226478446      -0.260455584569      -0.114525019852
72 1       1.911600000000       4.467750000000       0.239340000000      -0.045803418511      -0.091056913751       0.125580693848
73 1       8.405890000000       4.375650000000       2.089620000000       0.280280699347       0.083005118450      -0.130263871209
74 1       8.153150000000       4.028190000000       6.551400000000      -0.021806108942       0.010517879511       0.133329145966
75 1       4.309770000000       2.106990000000       0.058620000000      -0.295796828682       0.044641125939      -0.167039621588
76 1       4.034150000000       6.409240000000       8.283830000000      -0.138719727045       0.097686718782      -0.104651987440
77 1       2.119760000000       0.080400000000       4.193410000000       0.086921602611       0.172407158711      -0.009737189060
78 1       6.173090000000       8.361550000000       4.109280000000      -0.024841557535       0.184927646293       0.041364978736
79 1       2.112530000000       6.434530000000       6.390700000000      -0.211951973204       0.023660730067      -0.276423543083
80 1       6.252800000000       2.131150000000       2.039610000000      -0.084211487615      -0.175868180317      -0.090401443565
81 1       4.205520000000       4.142240000000       2.116450000000      -0.281128260373      -0.112804730363       0.134942096016
82 1       4.242320000000       4.350710000000       6.198780000000      -0.158832950897      -0.108664878425      -0.014091214652
83 1       8.218710000000       2.110520000000       8.406540000000      -0.038190827679       0.249055497239      -0.281976126061
84 1       0.042250000000       6.335540000000       0.087460000000       0.322241334052      -0.107158992070      -0.085786114301
85 1       8.276580000000       0.065900000000       6.334480000000       0.110352762526       0.184852144878      -0.040945691451
86 1       8.278170000000       8.389890000000       2.100210000000       0.035143750024       0.010437314177      -0.004802470562
87 1       4.259520000000       6.262120000000       4.257040000000      -0.126699654036       0.034264179787       0.101937868218
88 1       4.144650000000       2.177390000000       4.130910000000      -0.281514917900       0.062367177121       0.062688397846
89 1       6.284850000000       2.171800000000       6.381920000000       0.272096166916       0.037423529577      -0.005416101550
90 1       2.063620000000       6.368660000000       2.077500000000      -0.261530662406      -0.143017845245      -0.190298747287
91 1       2.281000000000       4.056170000000       3.967060000000       0.053133170801       0.097564851910      -0.095119457427
92 1       6.189470000000       4.342270000000       4.293700000000       0.097040335639       0.031820783765       0.058088107624
93 1       6.419080000000       0.154290000000       0.112840000000       0.035778013588      -0.114230690075      -0.007091416683
94 1       2.050650000000       8.369730000000       8.577470000000       0.131222108667       0.299119265133       0.078987198337
95 1       6.354330000000       6.388750000000       2.168400000000       0.066578022321       0.157345502132       0.143354705657
96 1       1.921790000000       2.186820000000       6.193990000000      -0.029800064185      -0.118318759377       0.109274210128
97 1       2.017020000000       2.166080000000      10.600890000000       0.194638282918       0.063572801072       0.033410494011
98 1       6.234850000000       6.149350000000      14.659370000000      -0.158158302779      -0.215775635182      -0.186506398340
99 1       4.128810000000       8.230730000000      14.871770000000      -0.040316273060      -0.196201347879       0.131901424366
100 1       4.235530000000       8.241350000000      10.386490000000      -0.172742038791       0.023650774286       0.115600934186
101 1       8.270220000000       6.318330000000      12.527320000000       0.032542892247      -0.122253824953      -0.062017916023
102 1       0.179410000000       1.800000000000      12.829640000000      -0.056095636121      -0.017563380733      -0.069108693022
103 1       6.586110000000       3.920160000000      16.586400000000      -0.089279091164       0.040095234282       0.017927890709
104 1       2.034940000000       4.333130000000       8.425630000000      -0.237928146860       0.004595656957       0.253589513836
105 1       0.135970000000       4.371630000000      10.278230000000      -0.036219171148       0.002780589757      -0.096553298431
106 1       0.006660000000       4.038810000000      14.739550000000      -0.190549215715      -0.048020091916       0.229228010606
107 1       4.177150000000       2.096860000000       8.253330000000      -0.320342527563      -0.127502805203      -0.109641828343
108 1       4.135210000000       6.317650000000      16.709580000000      -0.053252693613      -0.054445112983       0.322500864304
109 1       2.037590000000       8.374530000000      12.683640000000      -0.038334937686       0.259174664499      -0.108865647869
110 1       6.362410000000       8.253420000000      12.580590000000       0.049983165339       0.124273072132      -0.128539510834
111 1       2.112440000000       6.285630000000      14.563600000000       0.092291124864      -0.331821097490      -0.133742238150
112 1       6.144780000000       2.006250000000      10.451350000000       0.005941941299       0.216915527113       0.224778848974
113 1       4.124310000000       4.257560000000      10.529810000000      -0.215261410038      -0.131760489853       0.114602894116
114 1       4.298710000000       4.155970000000      14.822570000000      -0.054256246828       0.201356255448       0.025544843866
115 1       0.030430000000       2.041550000000      16.729700000000      -0.024745182901       0.235495371903       0.087810528332
116 1       8.375320000000       6.327570000000       8.446620000000       0.241008305718      -0.255785459734       0.158351232546
117 1       0.040790000000       8.298730000000      14.731590000000       0.235134633138       0.128301031730      -0.107700952814
118 1       8.229190000000       8.285750000000      10.621680000000       0.155415392372       0.132320759316       0.031414586920
119 1       4.277440000000       6.387310000000      12.774540000000      -0.101499469140       0.002985682790      -0.023930300807
120 1       4.171500000000       1.955480000000      12.677010000000      -0.213160548886      -0.007946501412      -0.036745249377
121 1       6.404590000000       1.973500000000      14.761200000000       0.191198792379       0.334823449057       0.077430060297
122 1       1.999910000000       6.232890000000      10.453260000000      -0.053426393038      -0.218853276050       0.029154476852
123 1       2.051880000000       4.020430000000      12.490240000000       0.085457317016      -0.002901712211       0.007452280071
124 1       6.231590000000       4.221500000000      12.749180000000      -0.121711617812      -0.218907242760      -0.240524233210
125 1       6.140700000000       0.108730000000       8.555460000000      -0.105029599243       0.156123579754       0.116743172828
126 1       2.240880000000       0.052860000000      16.743060000000      -0.195070011217      -0.052565742732       0.102583046374
127 1       6.320080000000       6.347960000000      10.569580000000       0.100692690537      -0.105817115838       0.229642592890
128 1       2.104320000000       1.887810000000      14.649600000000      -0.280927531481       0.056164765378      -0.282544603100
129 1       2.284630000000       2.011500000000      19.056700000000      -0.058436268174      -0.093390597743       0.025442414881
130 1       6.365640000000       6.340940000000      23.051880000000      -0.213728676835      -0.046772330838       0.053935631151
131 1       4.346350000000       0.035710000000      23.102120000000       0.022820849241      -0.230167204124       0.035682535167
132 1       4.394280000000       0.069140000000      18.874850000000      -0.017084934995      -0.212466541843      -0.016723194654
133 1       0.111600000000       6.374070000000      21.072490000000      -0.028861194470       0.132588673146      -0.256311444132
134 1       0.112460000000       2.083990000000      21.105700000000       0.217839737861       0.059467481998       0.127637844376
135 1       6.424800000000       4.177730000000      25.156770000000      -0.112944291402      -0.061303911703      -0.043452775325
136 1       2.114410000000       4.059440000000      16.815820000000      -0.115334215962       0.054394575650       0.022195987824
137 1       0.057780000000       4.272230000000      18.802170000000       0.091635694028       0.170785066106      -0.127759949938
138 1       8.376260000000       4.163430000000      23.250580000000       0.129638244683       0.087665470450       0.003432421696
139 1       4.362080000000       1.953090000000      16.905760000000       0.032883542655       0.202661561197       0.004805589491
140 1       4.170630000000       6.312430000000      25.154790000000      -0.171684437250       0.044574718926      -0.142477440911
141 1       2.105570000000       0.145560000000      21.037630000000       0.021844972326      -0.032865511015       0.006986051699
142 1       6.514510000000       0.013810000000      20.969820000000       0.040066804065      -0.317448284021      -0.171109790400
143 1       2.267310000000       6.332980000000      23.272520000000      -0.039334327252       0.085346339915      -0.064000504381
144 1       6.329310000000       2.006350000000      18.857000000000      -0.086175409485       0.077207615582      -0.067355231462
145 1       4.225850000000       4.139610000000      19.046760000000      -0.042959533141       0.196496052022      -0.347301707279
146 1       4.485260000000       4.486610000000      22.876840000000      -0.041278283843      -0.093660044617       0.004783582979
147 1       8.351250000000       2.253480000000      25.206420000000       0.130626952841      -0.003753249127      -0.107088846997
148 1       0.022840000000       6.166410000000      16.922860000000       0.227135587619      -0.080754247888       0.054910873748
149 1       8.338160000000       0.159930000000      23.054470000000      -0.022313363998      -0.141232132659       0.107552997798
150 1       0.059760000000       8.382230000000      19.020750000000      -0.000672993343      -0.302737022877      -0.095063077171
151 1       4.375990000000       6.383300000000      21.061260000000       0.084832450225      -0.275111248754       0.169668387986
152 1       4.268580000000       2.211510000000      20.940260000000      -0.238020916617       0.227851150489      -0.080748910458
153 1       6.441110000000       2.252850000000      23.194500000000      -0.024956711174       0.042265415256       0.117846421977
154 1       2.161750000000       6.347400000000      18.973840000000      -0.062374413261       0.107775118662       0.048766159093
155 1       2.231610000000       4.109610000000      21.130030000000      -0.004849867795       0.009791897806      -0.007857539754
156 1       6.407010000000       4.315410000000      21.058440000000      -0.294987732584       0.099804923189       0.107123446375
157 1       6.275560000000       0.007080000000      16.907970000000       0.084857990403       0.020173081827       0.084800344667
158 1       2.081930000000       0.016030000000       0.017470000000      -0.078383069882      -0.111090812373       0.005112244467
159 1       6.644720000000       6.504540000000      19.144290000000      -0.130779596258      -0.037675230358      -0.073897163184
160 1       2.067650000000       2.072610000000      23.053540000000       0.146471560978      -0.050208742002       0.164469539224
