ITEM: TIMESTEP
0
ITEM: NUMBER OF ATOMS
160
ITEM: BOX BOUNDS pp pp pp
0.0000000000000000e+00 8.4170517050000004e+00
0.0000000000000000e+00 8.4170517050000004e+00
0.0000000000000000e+00 2.5251155113999999e+01
ITEM: ATOMS id type c_pe_atom
1 2     -10.496165454296
2 2      -9.524699554187
3 2      -9.613054625357
4 2     -10.508438762055
5 2     -10.578557705660
6 2     -10.512433308720
7 2      -9.638725438483
8 2      -9.768396772445
9 2      -9.554210007655
10 2      -9.583002147917
11 2      -9.645179528706
12 2     -10.639035092047
13 2     -10.516387208254
14 2     -10.547813629525
15 2      -9.586292083711
16 2      -9.940187497830
17 2      -9.623779663469
18 2     -10.442244308720
19 2      -9.628674184741
20 2      -9.870775191457
21 2      -6.057975418632
22 2      -5.402451145730
23 2      -5.921356064390
24 2      -4.684914647364
25 2      -5.351492420758
26 2      -6.537281598273
27 2      -6.594163171784
28 2      -4.552787071719
29 2      -6.798632204296
30 2      -5.631621967919
31 2      -5.375582788129
32 2      -5.561394756046
33 2      -4.953826852486
34 2      -4.971002208617
35 2      -5.390052313612
36 2      -4.831265412398
37 2      -6.175665342814
38 2      -5.002003470855
39 2      -6.597464136615
40 2      -6.599733625795
41 2      -5.888877560551
42 2      -6.201994028228
43 2      -5.462250212784
44 2      -5.176373251464
45 2      -4.959682561640
46 2      -4.913745035571
47 2      -5.082414333221
48 2      -6.131945405900
49 2      -5.108169074844
50 2      -6.344411796498
51 2      -6.485518235431
52 2      -5.205368812666
53 2      -4.815385327132
54 2      -5.294051485257
55 2      -5.351896884885
56 2      -5.810879517307
57 2      -5.404583024719
58 2      -5.427175046138
59 2      -5.361157859694
60 2      -6.594719617046
61 2     -10.307517745741
62 2     -10.157899299922
63 2     -10.017775673579
64 2     -10.212294880316
65 1      -6.658802274257
66 1      -6.901693515400
67 1      -3.407739857243
68 1      -2.942481908361
69 1      -2.721994437079
70 1      -3.036455773893
71 1      -6.703395570733
72 1      -2.941853829082
73 1      -6.773988711819
74 1      -2.883579338126
75 1      -2.761127840693
76 1      -7.334509852100
77 1      -3.726881480818
78 1      -3.486085600953
79 1      -2.821904480542
80 1      -7.768712416896
81 1      -6.732086839564
82 1      -6.654855614145
83 1      -6.928313398461
84 1      -7.089450667083
85 1      -3.361419464742
86 1      -3.042728419083
87 1      -6.620070366194
88 1      -7.098327952856
89 1      -7.152188567848
90 1      -6.729072945902
91 1      -2.916982534561
92 1      -6.354936907973
93 1      -3.513060759568
94 1      -2.859744201254
95 1      -7.872725369817
96 1      -2.913510673075
97 1      -2.963699783133
98 1      -7.400168885536
99 1      -7.327890142188
100 1      -3.343881894686
101 1      -6.411123830409
102 1      -3.217819461554
103 1      -3.630188326174
104 1      -6.842158816965
105 1      -2.970144653109
106 1      -6.660496923313
107 1      -2.962477556193
108 1      -3.172588639025
109 1      -7.095695135239
110 1      -6.612451606794
111 1      -2.998878932539
112 1      -2.818550597197
113 1      -3.531908211911
114 1      -2.784112159689
115 1      -6.749618438328
116 1      -6.738441647007
117 1      -7.036747737914
118 1      -6.674245682137
119 1      -3.465172535475
120 1      -3.795617136282
121 1      -6.970269272048
122 1      -7.247044809956
123 1      -3.146913811601
124 1      -2.613615003172
125 1      -7.232715782381
126 1      -3.121366075727
127 1      -7.028914740416
128 1      -7.049703296136
129 1      -3.609904254436
130 1      -6.723884349715
131 1      -3.601257531832
132 1      -6.746660032970
133 1      -6.951789183515
134 1      -7.867189889113
135 1      -6.416316817688
136 1      -3.785417609293
137 1      -2.973235848999
138 1      -6.419128169763
139 1      -6.833917696770
140 1      -2.923729094507
141 1      -3.089329830136
142 1      -6.896103930230
143 1      -2.964311676333
144 1      -6.668730845475
145 1      -2.517450958676
146 1      -3.606291580753
147 1      -6.716686321162
148 1      -2.964365083949
149 1      -3.029617836317
150 1      -7.028230193893
151 1      -6.707094166897
152 1      -7.364659029231
153 1      -6.585351628065
154 1      -3.510444310423
155 1      -2.673290756402
156 1      -6.499682442470
157 1      -6.589594229451
158 1      -3.674214486362
159 1      -3.111641074788
160 1      -3.204230175554
