30
Config_type=bulk_alpha_phase Weight=1.0 Lattice="5.023205877 0.000000000 0.000000000 -2.511602939 4.350224313 0.000000000 0.000000000 0.000000000 13.522829828" Energy=-255.01597260 Virial="9.82781 -0.00002 0.00001 -0.00002 9.82774 0.00002 0.00001 0.00002 8.75766" pbc="T T T" Properties=species:S:1:pos:R:3:forces:R:3
Ga	      0.00000      0.00000      1.94917         0.000013     -0.000051     -0.019995
Ga	     -0.00000      2.90015      0.30464         0.000030     -0.000023      0.020038
Ga	      2.51160      1.45007      2.55843         0.000063      0.000096      0.020296
Ga	     -0.00000      2.90015      4.20298        -0.000006      0.000009     -0.020031
Ga	      2.51160      1.45007      6.45678         0.000049      0.000129     -0.020071
Ga	      0.00000      0.00000      4.81224        -0.000010      0.000023      0.020269
Ga	     -0.00000      2.90015      7.06605        -0.000030     -0.000035      0.020080
Ga	      0.00000      0.00000      8.71059        -0.000014     -0.000040     -0.020238
Ga	     -0.00000      2.90015     10.96440        -0.000016      0.000011     -0.020246
Ga	      2.51160      1.45007      9.31985         0.000057      0.000110      0.020028
Ga	      0.00000      0.00000     11.57366        -0.000014      0.000013      0.020012
Ga	      2.51160      1.45007     13.21819         0.000076      0.000130     -0.020056
O	     -0.76103      1.31815      3.38071        -0.006292      0.010671     -0.000108
O	      1.52206      0.00000      3.38071         0.012461      0.000037     -0.000075
O	      1.75057      3.03208      3.38071        -0.006164     -0.010799     -0.000099
O	      3.27264      0.13193      1.12690         0.006168     -0.010764      0.000026
O	      3.27264      2.76822      1.12690         0.006085      0.010773      0.000059
O	      0.98954      1.45007      1.12690        -0.012391      0.000029      0.000024
O	      1.75057      2.76822      7.88831        -0.006122      0.010789      0.000166
O	      4.03367      1.45007      7.88831         0.012362      0.000011      0.000146
O	      1.75057      0.13193      7.88831        -0.006258     -0.010756      0.000152
O	      0.76103      1.58201      5.63452         0.006182     -0.010900     -0.000180
O	      0.76103      4.21830      5.63452         0.006335      0.010686     -0.000196
O	     -1.52206      2.90015      5.63452        -0.012531      0.000074     -0.000140
O	     -0.76103      4.21830     12.39593        -0.006276      0.010679     -0.000060
O	      1.52206      2.90015     12.39593         0.012475      0.000034     -0.000024
O	     -0.76103      1.58201     12.39593        -0.006223     -0.010839     -0.000039
O	     -1.75057      3.03208     10.14212         0.006216     -0.010794      0.000073
O	      0.76103      1.31815     10.14212         0.006201      0.010743      0.000087
O	      3.50114      0.00000     10.14212        -0.012426     -0.000044      0.000101
