ITEM: TIMESTEP
0
ITEM: NUMBER OF ATOMS
20
ITEM: BOX BOUNDS xy xz yz pp pp pp
-1.3819208892570001e+00 1.2385684430654001e+01 0.0000000000000000e+00
0.0000000000000000e+00 3.0672066079999998e+00 -1.3819208892570001e+00
0.0000000000000000e+00 5.6783709774180000e+00 0.0000000000000000e+00
ITEM: ATOMS id type c_pe_atom
1 2      -4.895377409697
2 2      -4.895384500910
3 2      -4.373553326911
4 2      -4.373561185201
5 2      -4.895380839081
6 2      -4.895376753304
7 2      -4.373568517131
8 2      -4.373553489677
9 1     -11.226755372664
10 1     -11.226772083522
11 1     -11.022663779570
12 1     -11.022661366030
13 1     -11.129217208795
14 1     -11.129213463416
15 1     -11.226772073917
16 1     -11.226755273954
17 1     -11.022658905453
18 1     -11.022662553017
19 1     -11.129213382187
20 1     -11.129219299644
