ITEM: TIMESTEP
0
ITEM: NUMBER OF ATOMS
160
ITEM: BOX BOUNDS pp pp pp
0.0000000000000000e+00 8.2896671649999991e+00
0.0000000000000000e+00 8.2896671649999991e+00
0.0000000000000000e+00 2.4869001493999999e+01
ITEM: ATOMS id type c_pe_atom
1 2      -4.392919159594
2 2      -4.211748862680
3 2      -4.208239222192
4 2      -4.348873743620
5 2      -4.334733283627
6 2      -4.405570481379
7 2      -4.260865681364
8 2      -4.232583090957
9 2      -4.246540478770
10 2      -4.204243499751
11 2      -4.213527389048
12 2      -4.338420600014
13 2      -4.389244756435
14 2      -4.328164876367
15 2      -4.209610887298
16 2      -4.237769038225
17 2      -4.278331201868
18 2      -4.396408828070
19 2      -4.263757410677
20 2      -4.237141400401
21 2      -4.816173484235
22 2      -4.710152935811
23 2      -4.900081607077
24 2      -4.572304607618
25 2      -4.717061411808
26 2      -5.020880701450
27 2      -4.994931252594
28 2      -4.543177256258
29 2      -4.982381046334
30 2      -4.834163607090
31 2      -4.718167029547
32 2      -4.703486886744
33 2      -4.657982311311
34 2      -4.611768038978
35 2      -4.671179536374
36 2      -4.629220523252
37 2      -4.870130345396
38 2      -4.628816461323
39 2      -4.980238002065
40 2      -4.998140370137
41 2      -4.699761988875
42 2      -4.809284929959
43 2      -4.736081587485
44 2      -4.654148060977
45 2      -4.619741547389
46 2      -4.604709283448
47 2      -4.671859744683
48 2      -4.833536697415
49 2      -4.670343437507
50 2      -5.001352768168
51 2      -5.019809584166
52 2      -4.673200154437
53 2      -4.612432515067
54 2      -4.674577381246
55 2      -4.661733031304
56 2      -4.674528331166
57 2      -4.722188872696
58 2      -4.710799102584
59 2      -4.660818369113
60 2      -4.991613879165
61 2      -4.571940465440
62 2      -4.528011040228
63 2      -4.547867710826
64 2      -4.548705951287
65 1     -11.159412852056
66 1     -11.203805608532
67 1     -11.099117655310
68 1     -11.133870286319
69 1     -11.121367602296
70 1     -11.007724082662
71 1     -11.135411704400
72 1     -10.728056779750
73 1     -11.088650148286
74 1     -10.712261745619
75 1     -11.092385184414
76 1     -11.060983905575
77 1     -11.303215597777
78 1     -11.091370936095
79 1     -11.095079177178
80 1     -11.057204081360
81 1     -11.086127617661
82 1     -11.161346536119
83 1     -11.077438197582
84 1     -11.117185647653
85 1     -11.321968861733
86 1     -11.144092481726
87 1     -11.178279918030
88 1     -11.111786334462
89 1     -11.100094639635
90 1     -11.157224933758
91 1     -10.719299672285
92 1     -11.173524619550
93 1     -11.089005697936
94 1     -11.141293054213
95 1     -11.054077885191
96 1     -11.006637486336
97 1     -11.005184149059
98 1     -10.997587397077
99 1     -11.070015899753
100 1     -11.078466959681
101 1     -11.160941366608
102 1     -10.713308967824
103 1     -10.677704488405
104 1     -11.097264755370
105 1     -10.721287529950
106 1     -11.112030476665
107 1     -11.131612105247
108 1     -11.047412653698
109 1     -11.121559465691
110 1     -11.210289626751
111 1     -11.152655802519
112 1     -11.088899517292
113 1     -11.308533866433
114 1     -11.154599195345
115 1     -11.133043099565
116 1     -11.124689718701
117 1     -11.139855695861
118 1     -11.154703742636
119 1     -11.107268112243
120 1     -11.317622198762
121 1     -11.118874726425
122 1     -11.111976234342
123 1     -11.008411779392
124 1     -11.097990546850
125 1     -11.064432202731
126 1     -11.163189349907
127 1     -11.196330250662
128 1     -11.156569215867
129 1     -11.099485180324
130 1     -11.128123315489
131 1     -11.302223117775
132 1     -11.185171628102
133 1     -11.148530979415
134 1     -11.053485536433
135 1     -11.167575983045
136 1     -11.275833170428
137 1     -11.010306586696
138 1     -11.145645994728
139 1     -11.196171972893
140 1     -11.024833184541
141 1     -11.129469790171
142 1     -11.141829648937
143 1     -11.038523191607
144 1     -11.162973633155
145 1     -11.103106883927
146 1     -10.676952827506
147 1     -11.172947975056
148 1     -11.024242407348
149 1     -11.187913097832
150 1     -11.113092761122
151 1     -11.142951965050
152 1     -11.063938455701
153 1     -11.204337041064
154 1     -11.305206691396
155 1     -11.045455431093
156 1     -11.077929348240
157 1     -11.164267698385
158 1     -11.303995757728
159 1     -10.719385991690
160 1     -11.031506798999
