ITEM: TIMESTEP
0
ITEM: NUMBER OF ATOMS
160
ITEM: BOX BOUNDS pp pp pp
0.0000000000000000e+00 8.2896671649999991e+00
0.0000000000000000e+00 8.2896671649999991e+00
0.0000000000000000e+00 2.4869001493999999e+01
ITEM: ATOMS id type x y z fx fy fz
1 2       1.204470000000       5.150160000000      21.859880000000      -0.011407879365       0.026636640928      -0.017831994621
2 2       5.146200000000       0.836140000000      13.539010000000      -0.222703246849      -0.026466453699      -0.030693344066
3 2       7.078960000000       7.327610000000       7.316670000000      -0.110972652094       0.164663208381      -0.057307283381
4 2       7.215300000000       7.056930000000      15.617090000000      -0.009957620197      -0.109269856635       0.097480028970
5 2       5.168970000000       5.201800000000       0.971610000000       0.034756062079       0.237643634272      -0.096839656315
6 2       2.998720000000       3.173060000000       7.143250000000      -0.044257185077      -0.191983602596       0.001414884387
7 2       0.937110000000       1.039470000000       1.092060000000      -0.103732346018      -0.036198597081      -0.004528790127
8 2       5.115320000000       1.026760000000       5.190220000000       0.021478297268       0.066175421235       0.011267615204
9 2       3.148760000000       2.928150000000      15.486680000000      -0.091777414638       0.099775462173      -0.043216410004
10 2       5.332180000000       1.103000000000      21.695180000000      -0.119264523137       0.021345993734       0.036350741344
11 2       3.100610000000       7.174570000000      11.400520000000      -0.002730067245       0.007436758750      -0.014899809250
12 2       7.343570000000       3.162140000000      19.614290000000       0.162079192560      -0.093976091158      -0.107149248590
13 2       1.008680000000       5.042680000000      13.355660000000       0.073223675387       0.065728242021      -0.032993167171
14 2       7.256800000000       3.184120000000       3.171410000000      -0.045216236077      -0.250097250591       0.116373024814
15 2       5.047930000000       5.287640000000       9.272900000000      -0.153913551522       0.088412498766       0.042178983446
16 2       7.281350000000       7.360330000000      23.863230000000      -0.015870527797      -0.093122675430       0.030815051987
17 2       3.164000000000       7.379300000000      19.742390000000      -0.183420691474      -0.047424191120       0.051214518671
18 2       0.900680000000       1.068670000000       9.421340000000       0.170854413765       0.063476103442       0.008539154706
19 2       3.197040000000       7.349040000000       3.051270000000       0.077453429570       0.063470068958      -0.025643125744
20 2       1.162700000000       1.028730000000      17.643240000000      -0.049852198978       0.021928832175       0.049436936975
21 2       3.881920000000       0.194520000000       8.303340000000       0.150676571751      -0.138428427965       0.036214865957
22 2       6.080510000000       6.048130000000      12.410500000000       0.020348701956      -0.094620384267      -0.048051305671
23 2       2.141170000000       2.124860000000      20.740130000000       0.013855762171      -0.106374643471       0.030754735720
24 2       6.339340000000       6.226700000000      20.682510000000      -0.081593010557      -0.271926261489       0.083793085498
25 2       1.937680000000       6.329390000000       8.198080000000      -0.124286564898       0.042623157446      -0.060602482335
26 2       8.247310000000       2.039640000000       6.178730000000       0.203642373168       0.052884975223      -0.203033244385
27 2       1.974720000000       2.071410000000       4.184290000000      -0.162665953572      -0.007448271754       0.159769595753
28 2       0.040730000000       1.992070000000      14.459620000000       0.082654062529       0.356232295524       0.100949620799
29 2       0.170340000000       6.140410000000      18.610020000000      -0.039830952576      -0.124837255003      -0.184593541637
30 2       6.207310000000       0.056310000000       2.082350000000       0.006200973388      -0.011900627985      -0.031534824727
31 2       6.037410000000       0.076280000000      10.425080000000      -0.039589895378       0.057636562402       0.075750231344
32 2       4.138710000000       2.175970000000      18.604170000000       0.016776308672       0.030531437735      -0.108705736289
33 2       6.347540000000       8.242200000000      18.650900000000       0.146421051013       0.116321706982      -0.139694812660
34 2       6.289090000000       2.044240000000      16.567620000000      -0.078131134349      -0.046080195434       0.324922210915
35 2       0.159250000000       2.051420000000      22.851020000000       0.035084118408       0.095258017364       0.321100937627
36 2       2.008750000000       8.073750000000      14.604100000000      -0.090108512100      -0.035356639599      -0.018051922786
37 2       3.975390000000       5.960760000000      14.515810000000       0.161441130819       0.094595022254       0.040307931423
38 2       6.198590000000       4.165730000000       6.232710000000      -0.096111619729      -0.015419594112      -0.298768969038
39 2       4.162930000000       6.323720000000      22.837430000000      -0.081982013854       0.126993406680       0.196234657733
40 2       0.099680000000       4.146900000000      16.581350000000       0.085814664632       0.063245528945       0.199911523835
41 2       2.067550000000       4.198850000000       2.070370000000      -0.018650984525      -0.022355572215       0.014935992916
42 2       4.104920000000       4.258210000000      20.673520000000       0.010818014602       0.026260307119       0.058739912660
43 2       4.108010000000       8.092480000000      16.643750000000       0.007864896237      -0.072805196584       0.027351291946
44 2       6.227710000000       4.200920000000      22.761650000000       0.109714779781      -0.147397462973       0.114750080194
45 2       8.225610000000       6.135840000000      10.348340000000      -0.045077910076       0.103106859161       0.356130354793
46 2       8.271220000000       8.230000000000      12.452720000000      -0.005499878600      -0.183573864431      -0.425183381665
47 2       0.044960000000       4.229260000000       0.029650000000      -0.153880023029       0.039894161308      -0.195896866822
48 2       6.161930000000       4.025130000000      14.481690000000       0.053042249709       0.231529983525      -0.032999742238
49 2       4.085000000000       4.155300000000       4.117980000000       0.141198038314      -0.065287701765       0.254108311341
50 2       2.109700000000       2.015560000000      12.358150000000       0.070189057619       0.155500622885      -0.129978321386
51 2       2.074510000000       4.064640000000      10.375360000000      -0.033393183043      -0.152768702675       0.134555437451
52 2       0.038290000000       6.358130000000       2.176320000000       0.265072026934       0.048331219322      -0.043882326458
53 2       0.201160000000       8.251850000000      20.826240000000       0.065423443736      -0.206868726711      -0.096201131829
54 2       4.079870000000       2.029450000000       1.961610000000      -0.218404911979      -0.057935008735      -0.028112077821
55 2       6.138370000000       2.040600000000      24.824730000000       0.012829155968      -0.009001321902      -0.331563318964
56 2       8.257550000000       4.104980000000       8.287630000000       0.152511207409      -0.186906411752      -0.027821609026
57 2       6.028700000000       2.145890000000       8.392550000000      -0.053266962582       0.119781385435      -0.012754518778
58 2       3.975180000000       6.359150000000       6.156460000000      -0.018747190539      -0.001266851971      -0.079607511019
59 2       6.273880000000       6.351080000000       4.195660000000      -0.000161354783       0.005507707509       0.291047574989
60 2       2.156890000000       6.322660000000      24.832370000000       0.149353428917      -0.028283908694      -0.159447320209
61 2       5.122170000000       3.092470000000      11.441010000000      -0.081770671139      -0.073361335179       0.018045623237
62 2       3.139880000000       1.073530000000      23.811930000000       0.060283166862      -0.010172839027      -0.047904934320
63 2       3.149080000000       5.113850000000      17.612010000000      -0.068035072703       0.064601649515       0.012469228638
64 2       0.977370000000       7.312060000000       5.172200000000      -0.000605536744       0.031788419530       0.021398762534
65 1       2.096040000000       2.130120000000       2.104110000000       0.187590729566      -0.055819806061      -0.145790894300
66 1       6.076110000000       6.172670000000       6.182990000000       0.117481887762      -0.120445118798      -0.153496642076
67 1       4.179530000000       8.239730000000       6.353760000000      -0.026196395246       0.143632289964       0.063971952525
68 1       4.258910000000       0.127380000000       2.035370000000      -0.025109283890      -0.048556877655       0.069664643677
69 1       8.178380000000       6.256780000000       4.088270000000       0.056629712450      -0.011323822491       0.098789219493
70 1       0.022970000000       2.125780000000       4.221060000000      -0.013475090736       0.038234373720      -0.008186841028
71 1       6.146620000000       4.134590000000       8.258600000000       0.030725225221      -0.207708626145      -0.005431411076
72 1       1.921730000000       4.375190000000       0.199050000000      -0.071353917288       0.169512528092       0.023799446473
73 1       8.285860000000       4.300660000000       2.047610000000       0.056205849855       0.034791076146      -0.116700459556
74 1       8.069040000000       3.993960000000       6.418250000000      -0.125028027274      -0.140018349661       0.040059649119
75 1       4.231930000000       2.125180000000       0.043460000000      -0.063341151047       0.009756278133      -0.037743633553
76 1       3.973350000000       6.328940000000       8.161990000000      -0.009648883958       0.052122916358      -0.177705385767
77 1       2.092870000000       0.080960000000       4.124250000000       0.015207388492       0.054858854675      -0.057297106086
78 1       6.097540000000       8.243690000000       4.050480000000      -0.031553496963       0.089145018778      -0.016667761698
79 1       2.068190000000       6.286100000000       6.276740000000      -0.096733305102       0.009439977952      -0.080946565178
80 1       6.156340000000       2.107750000000       2.009610000000       0.067773428249       0.044679029769       0.033808771414
81 1       4.134890000000       4.086680000000       2.093010000000      -0.060363825159      -0.031710533349       0.096310034234
82 1       4.179930000000       4.284830000000       6.117200000000      -0.005686012681       0.011736369500      -0.131916570701
83 1       8.088280000000       2.081430000000       8.263840000000       0.023716532241       0.056764968626       0.084139239655
84 1       0.046940000000       6.237070000000       0.093450000000       0.022537371704      -0.106197579962      -0.104272417941
85 1       8.147020000000       0.065540000000       6.233760000000      -0.011160238843      -0.073150381530       0.017579844242
86 1       8.157600000000       8.263980000000       2.107430000000       0.017454871069       0.051195698209      -0.049908504126
87 1       4.198280000000       6.172690000000       4.180300000000      -0.147665291443      -0.037283612045       0.231646634784
88 1       4.077410000000       2.148720000000       4.059530000000      -0.007885513245       0.126692352453       0.081407645355
89 1       6.186470000000       2.147290000000       6.290370000000      -0.028188704707       0.043527673369      -0.063775143613
90 1       2.032190000000       6.262830000000       2.037850000000      -0.206835818097       0.052238936617       0.154870829776
91 1       2.208950000000       4.019380000000       3.939980000000       0.087372224452      -0.168811190813      -0.007749056970
92 1       6.093970000000       4.272590000000       4.221880000000      -0.046877587963       0.009026922719       0.051821179472
93 1       6.300560000000       0.146450000000       0.110620000000       0.050947303242      -0.078637286048       0.027598979206
94 1       1.995370000000       8.245050000000       8.406950000000       0.020731868600       0.076612345106      -0.019227999635
95 1       6.257530000000       6.285100000000       2.135070000000      -0.072485882480      -0.045149784765      -0.014604290726
96 1       1.908850000000       2.111880000000       6.116920000000       0.071171056880       0.023021013487       0.063670262915
97 1       2.025110000000       2.118850000000      10.421050000000      -0.040246865531      -0.079576349417      -0.025683578736
98 1       6.135420000000       6.060940000000      14.435330000000      -0.084956125171       0.008747875860      -0.066087083741
99 1       4.063520000000       8.095110000000      14.642990000000       0.029296831802      -0.008792020094       0.232451915808
100 1       4.154460000000       8.149070000000      10.242170000000      -0.146652639316       0.022399657952      -0.072864390461
101 1       8.150580000000       6.223580000000      12.350800000000       0.032467139632       0.078449812439      -0.175559951897
102 1       0.151090000000       1.809860000000      12.593760000000       0.173064159677      -0.112972030084       0.069535033309
103 1       6.455230000000       3.902990000000      16.369860000000       0.078953660391      -0.140404905728      -0.013680924880
104 1       2.000670000000       4.270980000000       8.309250000000      -0.027085570414      -0.006958660748      -0.083984802192
105 1       0.109030000000       4.267810000000      10.157040000000       0.189435983170       0.104050884984      -0.008940682275
106 1       8.282920000000       3.978220000000      14.528060000000      -0.037494510097      -0.191808721817      -0.119739165359
107 1       4.110410000000       2.085100000000       8.169990000000      -0.075935473779      -0.023402630502       0.006130888864
108 1       4.124950000000       6.202970000000      16.466470000000      -0.053858028199      -0.097729028355      -0.016791327063
109 1       1.999340000000       8.243400000000      12.502030000000      -0.080679684445      -0.034102454225      -0.043837793957
110 1       6.262310000000       8.123510000000      12.395210000000       0.113488151500       0.167142488656      -0.166345521914
111 1       2.070880000000       6.173600000000      14.384680000000       0.023493452968      -0.057368325146       0.002485338750
112 1       6.102520000000       1.988600000000      10.305830000000      -0.000336028947       0.085645595182       0.090861859963
113 1       4.060350000000       4.197620000000      10.368740000000      -0.010534565699       0.039421979565      -0.055113557736
114 1       4.230190000000       4.070790000000      14.553070000000      -0.093043174872      -0.046147941251      -0.001937541358
115 1       0.022490000000       2.017510000000      16.480600000000      -0.041465472513       0.020901134109      -0.060395753620
116 1       8.234620000000       6.216040000000       8.320780000000       0.253076457135      -0.059291043243       0.014729785952
117 1       0.025500000000       8.187340000000      14.506410000000       0.231799454491      -0.018365069413       0.001229663344
118 1       8.106040000000       8.156830000000      10.450690000000      -0.002477801141       0.006703235412       0.106203237679
119 1       4.200400000000       6.257840000000      12.572860000000      -0.118346419723      -0.018150022499       0.010936909283
120 1       4.100660000000       1.923400000000      12.478850000000      -0.069434831279      -0.004602529384       0.007802130401
121 1       6.303030000000       1.951080000000      14.539310000000       0.089072561754       0.024858192758       0.047996004557
122 1       1.962950000000       6.138310000000      10.287940000000      -0.017235627267       0.006972687445       0.074382413752
123 1       2.056570000000       3.968410000000      12.314400000000      -0.025188775443       0.026618179197       0.109978030992
124 1       6.189670000000       4.144950000000      12.543010000000      -0.018074262971      -0.083133344602      -0.121879530251
125 1       6.033450000000       0.107100000000       8.421840000000      -0.032824683942      -0.026630093718       0.182878331063
126 1       2.199240000000       0.021600000000      16.505700000000      -0.112240011100       0.036222582785       0.057839393641
127 1       6.221150000000       6.263590000000      10.408080000000       0.143622723447      -0.105315408713       0.082269691288
128 1       2.059120000000       1.846550000000      14.424750000000      -0.077742967820       0.006590203194       0.049859185352
129 1       2.242870000000       2.004460000000      18.767070000000      -0.082274071476      -0.035844807775      -0.002257644136
130 1       6.266150000000       6.237360000000      22.706030000000      -0.006964537189       0.046466888775      -0.030182994830
131 1       4.281830000000       0.028370000000      22.760220000000       0.006748032211      -0.086396134949       0.032149473959
132 1       4.326930000000       0.075690000000      18.602190000000       0.050389387908      -0.123525574178      -0.156115957289
133 1       0.100160000000       6.270150000000      20.736870000000       0.080232891934       0.208715196865       0.048364624602
134 1       0.101100000000       2.052430000000      20.786840000000      -0.025959056827       0.047360088023      -0.002962278588
135 1       6.328270000000       4.117990000000      24.783270000000       0.061661230402       0.001966869218      -0.013501720162
136 1       2.082100000000       3.993670000000      16.558070000000       0.019140305922      -0.050804593842       0.052362644107
137 1       0.093900000000       4.192820000000      18.531520000000      -0.056514284384      -0.022512244722       0.065947851344
138 1       8.247280000000       4.109220000000      22.886440000000      -0.007704980465       0.000440656211       0.136834227985
139 1       4.290190000000       1.910160000000      16.639610000000       0.112760606036       0.092065476796       0.113182496084
140 1       4.114570000000       6.259090000000      24.784500000000      -0.002888337060      -0.052330081839       0.058016386359
141 1       2.087720000000       0.149230000000      20.757640000000       0.033285277130       0.056408568757      -0.041224266046
142 1       6.419330000000       8.289430000000      20.653630000000       0.026028146304      -0.041203467621      -0.225440902110
143 1       2.214170000000       6.281220000000      22.897510000000      -0.099648470772      -0.007663452199      -0.143562592135
144 1       6.233150000000       1.972110000000      18.578830000000      -0.041587903998      -0.018758172291      -0.064940388397
145 1       4.214120000000       4.082840000000      18.745980000000       0.001865189358       0.048138271852      -0.113507210988
146 1       4.374070000000       4.391840000000      22.568080000000       0.112123020854       0.124511374453       0.004495605746
147 1       8.219620000000       2.216010000000      24.833170000000       0.157403885050       0.047417658043      -0.214416033112
148 1       0.067690000000       6.085970000000      16.657370000000      -0.017051145441       0.118609690625      -0.064774358284
149 1       8.239950000000       0.148650000000      22.719850000000      -0.035936371583      -0.090666104743       0.074864135161
150 1       0.061070000000       8.249850000000      18.742980000000      -0.139973772437      -0.021405761067      -0.083604608406
151 1       4.316040000000       6.282970000000      20.751650000000       0.055077765244       0.006317143401      -0.127587832832
152 1       4.207570000000       2.177430000000      20.630010000000       0.096125867675      -0.053556285912      -0.041017776155
153 1       6.353140000000       2.212970000000      22.842380000000      -0.113820175203       0.119324931976       0.172290197352
154 1       2.133990000000       6.254420000000      18.689480000000       0.077052430876       0.048880027225      -0.020957139679
155 1       2.192190000000       4.069530000000      20.756660000000       0.021976119973       0.022438038229       0.035485000963
156 1       6.284250000000       4.237820000000      20.745380000000      -0.237001242891       0.210626271198       0.105443824498
157 1       6.184530000000       0.010620000000      16.646650000000      -0.008279765102      -0.013757272900       0.100205843686
158 1       2.045170000000       0.016240000000       0.021750000000      -0.040026337604       0.000815573237       0.035296808006
159 1       6.517690000000       6.368930000000      18.816100000000       0.119441854880       0.085478798645       0.087017042839
160 1       2.047900000000       2.097620000000      22.713810000000       0.012253582718      -0.030108521142      -0.021168494881
