ITEM: TIMESTEP
0
ITEM: NUMBER OF ATOMS
80
ITEM: BOX BOUNDS pp pp pp
0.0000000000000000e+00 9.3168351089999994e+00
0.0000000000000000e+00 9.3168351089999994e+00
0.0000000000000000e+00 9.3168351089999994e+00
ITEM: ATOMS id type c_pe_atom
1 2      -5.430956419244
2 2      -5.140423693447
3 2      -5.140375833748
4 2      -5.140446498000
5 2      -5.140375833748
6 2      -5.140408971497
7 2      -5.140446498000
8 2      -5.430956419244
9 2      -5.430983037618
10 2      -5.430956419244
11 2      -5.140408971497
12 2      -5.140446498000
13 2      -5.140423693447
14 2      -5.140408971497
15 2      -5.140423693447
16 2      -5.140375833748
17 2      -5.430929798741
18 2      -5.140400469131
19 2      -5.140436453760
20 2      -5.140377663966
21 2      -5.140436453760
22 2      -5.140403315086
23 2      -5.140377663966
24 2      -5.430929798741
25 2      -5.430903178064
26 2      -5.430929798741
27 2      -5.140403315086
28 2      -5.140377663966
29 2      -5.140400469131
30 2      -5.140403315086
31 2      -5.140400469131
32 2      -5.140436453760
33 1      -6.413591984399
34 1      -6.413577119561
35 1      -6.413566846994
36 1      -6.413583193155
37 1      -6.413595775708
38 1      -6.413623300737
39 1      -6.413566846994
40 1      -6.413595775708
41 1      -6.413623300737
42 1      -6.413594282578
43 1      -6.413566846994
44 1      -6.413591984399
45 1      -6.413597967170
46 1      -6.413595775708
47 1      -6.413577119561
48 1      -6.413583193155
49 1      -6.413594282578
50 1      -6.413597967170
51 1      -6.413594282578
52 1      -6.413577119561
53 1      -6.413591984399
54 1      -6.413597967170
55 1      -6.413583193155
56 1      -6.413623300737
57 1      -6.413599325053
58 1      -6.413550831061
59 1      -6.413589253777
60 1      -6.413553341968
61 1      -6.413584551414
62 1      -6.413576590392
63 1      -6.413589253777
64 1      -6.413584551414
65 1      -6.413576590392
66 1      -6.413553232483
67 1      -6.413589253777
68 1      -6.413599325053
69 1      -6.413573778417
70 1      -6.413584551414
71 1      -6.413550831061
72 1      -6.413553341968
73 1      -6.413553232483
74 1      -6.413573778417
75 1      -6.413553232483
76 1      -6.413550831061
77 1      -6.413599325053
78 1      -6.413573778417
79 1      -6.413553341968
80 1      -6.413576590392
