ITEM: TIMESTEP
0
ITEM: NUMBER OF ATOMS
80
ITEM: BOX BOUNDS pp pp pp
0.0000000000000000e+00 9.3168351089999994e+00
0.0000000000000000e+00 9.3168351089999994e+00
0.0000000000000000e+00 9.3168351089999994e+00
ITEM: ATOMS id type v_vir_xx v_vir_yy v_vir_zz v_vir_xy v_vir_xz v_vir_yz
1 2      -6.443270849043      -6.443286665661      -6.443279335188      -1.274347021565       1.274341652163       1.274363076404
2 2      -5.574942695165      -5.723317984997      -5.750366431906       0.000012746090       0.518762866927      -0.000024955706
3 2      -5.750385899342      -5.574962819886      -5.723315484582       0.518787613173       0.000022498285      -0.000002213676
4 2      -5.750344372895      -5.574932024336      -5.723318629103      -0.518770846275      -0.000010749668       0.000016328821
5 2      -5.723315484582      -5.750385899342      -5.574962819886       0.000022498285      -0.000002213676       0.518787613173
6 2      -5.723274339720      -5.750295012076      -5.574921535707       0.000013205722      -0.000005791253      -0.518802456853
7 2      -5.574932024336      -5.723318629103      -5.750344372895       0.000016328821      -0.518770846275      -0.000010749668
8 2      -6.443279335188      -6.443270849043      -6.443286665661       1.274341652163       1.274363076404      -1.274347021565
9 2      -6.443251711608      -6.443251711608      -6.443251711608      -1.274347689300      -1.274347689300      -1.274347689300
10 2      -6.443286665661      -6.443279335188      -6.443270849043       1.274363076404      -1.274347021565       1.274341652163
11 2      -5.574921535707      -5.723274339720      -5.750295012076      -0.000005791253      -0.518802456853       0.000013205722
12 2      -5.723318629103      -5.750344372895      -5.574932024336      -0.000010749668       0.000016328821      -0.518770846275
13 2      -5.723317984997      -5.750366431906      -5.574942695165      -0.000024955706       0.000012746090       0.518762866927
14 2      -5.750295012076      -5.574921535707      -5.723274339720      -0.518802456853       0.000013205722      -0.000005791253
15 2      -5.750366431906      -5.574942695165      -5.723317984997       0.518762866927      -0.000024955706       0.000012746090
16 2      -5.574962819886      -5.723315484582      -5.750385899342      -0.000002213676       0.518787613173       0.000022498285
17 2      -6.443314286938      -6.443298463972      -6.443305796831      -1.274357039274       1.274362408198       1.274340988349
18 2      -5.574942361096      -5.723253612309      -5.750349051156       0.000000405522       0.518811637330      -0.000007984000
19 2      -5.750262493256      -5.574891820303      -5.723179336804       0.518813630260       0.000010439402      -0.000010943291
20 2      -5.750371108852      -5.574953027886      -5.723252968650      -0.518803657238       0.000001308244       0.000007592733
21 2      -5.723179336804      -5.750262493256      -5.574891820303       0.000010439402      -0.000010943291       0.518813630260
22 2      -5.723220478866      -5.750353374801      -5.574933099795      -0.000003764114      -0.000018132324      -0.518798789800
23 2      -5.574953027886      -5.723252968650      -5.750371108852       0.000007592733      -0.518803657238       0.000001308244
24 2      -6.443305796831      -6.443314286938      -6.443298463972       1.274362408198       1.274340988349      -1.274357039274
25 2      -6.443333417397      -6.443333417397      -6.443333417397      -1.274356374831      -1.274356374831      -1.274356374831
26 2      -6.443298463972      -6.443305796831      -6.443314286938       1.274340988349      -1.274357039274       1.274362408198
27 2      -5.574933099795      -5.723220478866      -5.750353374801      -0.000018132324      -0.518798789800      -0.000003764114
28 2      -5.723252968650      -5.750371108852      -5.574953027886       0.000001308244       0.000007592733      -0.518803657238
29 2      -5.723253612309      -5.750349051156      -5.574942361096      -0.000007984000       0.000000405522       0.518811637330
30 2      -5.750353374801      -5.574933099795      -5.723220478866      -0.518798789800      -0.000003764114      -0.000018132324
31 2      -5.750349051156      -5.574942361096      -5.723253612309       0.518811637330      -0.000007984000       0.000000405522
32 2      -5.574891820303      -5.723179336804      -5.750262493256      -0.000010943291       0.518813630260       0.000010439402
33 1       3.461772744099       3.479052990768       2.969321469016      -0.448972219904       0.737693002602       0.149485138012
34 1       3.461778668895       3.479068503446       2.969348245746       0.448964692301      -0.737707894462       0.149490793610
35 1       3.479042632839       2.969315939151       3.461782801761      -0.149489168495      -0.448976748404      -0.737694228155
36 1       3.479033404891       2.969339533555       3.461753937042       0.149493485798      -0.448975917274       0.737714253201
37 1       3.479060492815       2.969357343321       3.461786732355      -0.149512991673       0.448974136093       0.737698355973
38 1       3.479054051958       2.969312749908       3.461742875768       0.149496071138       0.448991775892      -0.737696906410
39 1       3.461782801761       3.479042632839       2.969315939151      -0.448976748404      -0.737694228155      -0.149489168495
40 1       3.461786732355       3.479060492815       2.969357343321       0.448974136093       0.737698355973      -0.149512991673
41 1       2.969312749908       3.461742875768       3.479054051958      -0.737696906410       0.149496071138       0.448991775892
42 1       2.969311811839       3.461792812717       3.479059359609       0.737702808824      -0.149477063044       0.448977387946
43 1       2.969315939151       3.461782801761       3.479042632839      -0.737694228155      -0.149489168495      -0.448976748404
44 1       2.969321469016       3.461772744099       3.479052990768       0.737693002602       0.149485138012      -0.448972219904
45 1       2.969353225504       3.461801882406       3.479041057229      -0.737709396153      -0.149492642547      -0.448966445668
46 1       2.969357343321       3.461786732355       3.479060492815       0.737698355973      -0.149512991673       0.448974136093
47 1       2.969348245746       3.461778668895       3.479068503446      -0.737707894462       0.149490793610       0.448964692301
48 1       2.969339533555       3.461753937042       3.479033404891       0.737714253201       0.149493485798      -0.448975917274
49 1       3.461792812717       3.479059359609       2.969311811839       0.448977387946       0.737702808824      -0.149477063044
50 1       3.461801882406       3.479041057229       2.969353225504      -0.448966445668      -0.737709396153      -0.149492642547
51 1       3.479059359609       2.969311811839       3.461792812717      -0.149477063044       0.448977387946       0.737702808824
52 1       3.479068503446       2.969348245746       3.461778668895       0.149490793610       0.448964692301      -0.737707894462
53 1       3.479052990768       2.969321469016       3.461772744099       0.149485138012      -0.448972219904       0.737693002602
54 1       3.479041057229       2.969353225504       3.461801882406      -0.149492642547      -0.448966445668      -0.737709396153
55 1       3.461753937042       3.479033404891       2.969339533555      -0.448975917274       0.737714253201       0.149493485798
56 1       3.461742875768       3.479054051958       2.969312749908       0.448991775892      -0.737696906410       0.149496071138
57 1       3.461799761455       3.479049868012       2.969351448344      -0.448980386201       0.737701803158       0.149499899456
58 1       3.461793011407       3.479027860230       2.969319556268       0.448957323277      -0.737716079664       0.149483108218
59 1       3.479064893079       2.969328794127       3.461756275733      -0.149488877988      -0.448986153505      -0.737706247260
60 1       3.479069976440       2.969314712929       3.461782325163       0.149491588440      -0.448961310298       0.737704632412
61 1       3.479045232052       2.969311525352       3.461747527942      -0.149490247721       0.448968003493       0.737709761351
62 1       3.479055825784       2.969346615738       3.461794202227       0.149500137996       0.448976041851      -0.737692806113
63 1       3.461756275733       3.479064893079       2.969328794127      -0.448986153505      -0.737706247260      -0.149488877988
64 1       3.461747527942       3.479045232052       2.969311525352       0.448968003493       0.737709761351      -0.149490247721
65 1       2.969346615738       3.461794202227       3.479055825784      -0.737692806113       0.149500137996       0.448976041851
66 1       2.969346478065       3.461781685296       3.479041150945       0.737702754383      -0.149489812141       0.448970298864
67 1       2.969328794127       3.461756275733       3.479064893079      -0.737706247260      -0.149488877988      -0.448986153505
68 1       2.969351448344       3.461799761455       3.479049868012       0.737701803158       0.149499899456      -0.448980386201
69 1       2.969329201050       3.461767803906       3.479057651341      -0.737703820992      -0.149499425308      -0.448960485134
70 1       2.969311525352       3.461747527942       3.479045232052       0.737709761351      -0.149490247721       0.448968003493
71 1       2.969319556268       3.461793011407       3.479027860230      -0.737716079664       0.149483108218       0.448957323277
72 1       2.969314712929       3.461782325163       3.479069976440       0.737704632412       0.149491588440      -0.448961310298
73 1       3.461781685296       3.479041150945       2.969346478065       0.448970298864       0.737702754383      -0.149489812141
74 1       3.461767803906       3.479057651341       2.969329201050      -0.448960485134      -0.737703820992      -0.149499425308
75 1       3.479041150945       2.969346478065       3.461781685296      -0.149489812141       0.448970298864       0.737702754383
76 1       3.479027860230       2.969319556268       3.461793011407       0.149483108218       0.448957323277      -0.737716079664
77 1       3.479049868012       2.969351448344       3.461799761455       0.149499899456      -0.448980386201       0.737701803158
78 1       3.479057651341       2.969329201050       3.461767803906      -0.149499425308      -0.448960485134      -0.737703820992
79 1       3.461782325163       3.479069976440       2.969314712929      -0.448961310298       0.737704632412       0.149491588440
80 1       3.461794202227       3.479055825784       2.969346615738       0.448976041851      -0.737692806113       0.149500137996
