ITEM: TIMESTEP
0
ITEM: NUMBER OF ATOMS
20
ITEM: BOX BOUNDS xy xz yz pp pp pp
-1.3930429887389999e+00 1.2485368007372999e+01 0.0000000000000000e+00
0.0000000000000000e+00 3.0918923750000000e+00 -1.3930429887389999e+00
0.0000000000000000e+00 5.7240721521460003e+00 0.0000000000000000e+00
ITEM: ATOMS id type c_pe_atom
1 2      -5.032081138053
2 2      -5.032080380081
3 2      -4.533268933465
4 2      -4.533257951106
5 2      -5.032078839697
6 2      -5.032078937720
7 2      -4.533262794776
8 2      -4.533263546397
9 1     -11.123637977046
10 1     -11.123643699867
11 1     -10.937997474193
12 1     -10.937983816285
13 1     -11.030033428202
14 1     -11.030019055588
15 1     -11.123635431534
16 1     -11.123629018313
17 1     -10.937994725587
18 1     -10.937987151418
19 1     -11.030041258142
20 1     -11.030022947175
