ITEM: TIMESTEP
0
ITEM: NUMBER OF ATOMS
40
ITEM: BOX BOUNDS pp pp pp
0.0000000000000000e+00 8.6789013579999992e+00
0.0000000000000000e+00 5.0539967060000004e+00
0.0000000000000000e+00 9.2866794699999993e+00
ITEM: ATOMS id type x y z fx fy fz
1 2       1.366060000000       1.559830000000       8.241860000000       0.043206402139       0.069919116069       0.039061429400
2 2       3.080930000000       4.086830000000       8.241860000000      -0.043165091564       0.069810269515       0.039120844747
3 2       5.707710000000       0.902010000000       7.414310000000      -0.038699552290       0.055057953429      -0.107563416711
4 2       7.418180000000       3.429010000000       7.414310000000       0.038722809574       0.054983895912      -0.107529653775
5 2       4.664880000000       3.421780000000       5.538240000000       0.080524581996      -0.049670670577       0.183835914506
6 2       1.458400000000       3.468570000000       5.659960000000       0.048038401551      -0.220168646274       0.167743503440
7 2       2.988590000000       0.941570000000       5.659960000000      -0.048067758541      -0.220126440309       0.167738867332
8 2       8.461010000000       0.894780000000       5.538250000000      -0.080436200728      -0.049603103311       0.183712462887
9 2       1.368030000000       1.624460000000       2.771000000000      -0.033854436215      -0.054938565228      -0.107544143368
10 2       3.078970000000       4.151450000000       2.771000000000       0.033725258785      -0.054774849879      -0.107543054440
11 2       5.704740000000       0.967820000000       3.598660000000       0.043247603009      -0.069982583670       0.038123986651
12 2       7.421150000000       3.494820000000       3.598660000000      -0.043152515034      -0.070050035982       0.038111077182
13 2       4.121950000000       1.632540000000       0.895050000000      -0.079506115440       0.052155665390       0.183150710931
14 2       5.797790000000       4.112420000000       1.016380000000       0.046841517905       0.221511903421       0.168614905320
15 2       7.328110000000       1.585430000000       1.016380000000      -0.046936344128       0.221448034086       0.168671884041
16 2       0.325030000000       4.159540000000       0.895050000000       0.079657321453       0.052263808354       0.183244692963
17 1       7.247780000000       1.765500000000       4.390770000000       0.054704848949      -0.045834401518       0.050302555962
18 1       0.025390000000       0.763540000000       0.019490000000       0.022523184182      -0.091820823765      -0.019391221794
19 1       7.285800000000       0.109150000000       6.863170000000      -0.073047476842       0.014249686284      -0.029216232610
20 1       7.221280000000       4.929560000000       2.120170000000       0.108450481885       0.035975213411      -0.142707637387
21 1       5.878110000000       4.292490000000       4.390760000000      -0.054760224694      -0.045683811258       0.050308628999
22 1       7.351520000000       3.309850000000       9.272300000000      -0.072194589771      -0.157434074023      -0.032209634756
23 1       5.840090000000       2.636160000000       6.863180000000       0.072856115784       0.014053841553      -0.029309786769
24 1       5.904620000000       2.402560000000       2.120180000000      -0.108439348044       0.036017495216      -0.142763249850
25 1       1.434740000000       1.744020000000       4.629080000000       0.071147611724       0.157237489024      -0.033232940707
26 1       2.908860000000       0.762060000000       9.034220000000       0.052645941994       0.044359568034       0.049184904505
27 1       1.565910000000       0.124010000000       6.764080000000      -0.107737064238      -0.038617049900      -0.140409585325
28 1       1.500620000000       4.944270000000       2.220000000000       0.075144717940      -0.012667380845      -0.027637647735
29 1       0.082710000000       4.290980000000       4.662930000000      -0.024730817887       0.090484181521      -0.019740141396
30 1       1.538130000000       3.289060000000       9.034220000000      -0.052693467086       0.044383516405       0.049226846271
31 1       0.162800000000       2.411920000000       6.813750000000      -0.128707991898       0.031443983667      -0.110779196047
32 1       8.623590000000       2.641700000000       2.170600000000       0.124505726792      -0.031410399850      -0.109618996419
33 1       4.364280000000       1.763980000000       4.662930000000       0.024722500115       0.090507381339      -0.019725084336
34 1       5.774370000000       0.782850000000       9.272300000000       0.072178348847      -0.157427864317      -0.032244030204
35 1       4.284180000000       4.938920000000       6.813740000000       0.128809170679       0.031481592520      -0.110701131340
36 1       4.502300000000       0.114700000000       2.170600000000      -0.124414743094      -0.031371036365      -0.109626161692
37 1       3.012250000000       4.271020000000       4.629080000000      -0.071126619134       0.157168444636      -0.033232243517
38 1       4.421600000000       3.290530000000       0.019490000000      -0.022499702505      -0.091710321055      -0.019374361899
39 1       2.881070000000       2.651000000000       6.764090000000       0.107713949210      -0.038538860093      -0.140465204076
40 1       2.946380000000       2.417270000000       2.220000000000      -0.075196435379      -0.012682121564      -0.027588458983
