ITEM: TIMESTEP
0
ITEM: NUMBER OF ATOMS
40
ITEM: BOX BOUNDS pp pp pp
0.0000000000000000e+00 8.6789013579999992e+00
0.0000000000000000e+00 5.0539967060000004e+00
0.0000000000000000e+00 9.2866794699999993e+00
ITEM: ATOMS id type c_pe_atom
1 2      -4.532386178447
2 2      -4.532380067609
3 2      -4.084435756253
4 2      -4.084423838285
5 2      -4.679501114276
6 2      -4.468507498912
7 2      -4.468515205177
8 2      -4.679514598457
9 2      -4.084265639198
10 2      -4.084260062396
11 2      -4.531664245853
12 2      -4.531668072968
13 2      -4.680307606305
14 2      -4.468937862007
15 2      -4.468941498991
16 2      -4.680323034194
17 1     -11.376933310799
18 1     -11.353727545154
19 1     -11.289868573360
20 1     -10.734839262418
21 1     -11.376951119519
22 1     -11.269180110004
23 1     -11.289859771395
24 1     -10.734840343928
25 1     -11.269010879884
26 1     -11.376786751794
27 1     -10.734307524510
28 1     -11.289791800195
29 1     -11.354585613113
30 1     -11.376777927792
31 1     -11.202062397850
32 1     -11.201729314428
33 1     -11.354599414423
34 1     -11.269170449310
35 1     -11.202065232000
36 1     -11.201727846040
37 1     -11.269013398483
38 1     -11.353721652217
39 1     -10.734302805657
40 1     -11.289806835995
