ITEM: TIMESTEP
0
ITEM: NUMBER OF ATOMS
30
ITEM: BOX BOUNDS xy xz yz pp pp pp
-2.4862843610000001e+00 4.9725687210000000e+00 -2.4862843610000001e+00
0.0000000000000000e+00 4.3063712450000002e+00 0.0000000000000000e+00
0.0000000000000000e+00 1.3386510979000001e+01 0.0000000000000000e+00
ITEM: ATOMS id type c_pe_atom
1 2      -4.349883885078
2 2      -4.349878251209
3 2      -4.349901431437
4 2      -4.349887196223
5 2      -4.349873775558
6 2      -4.349887874155
7 2      -4.349873649623
8 2      -4.349888136157
9 2      -4.349901912391
10 2      -4.349887753100
11 2      -4.349884899408
12 2      -4.349879025712
13 1     -11.233368224769
14 1     -11.233367465921
15 1     -11.233371830736
16 1     -11.233365267964
17 1     -11.233371760398
18 1     -11.233377503546
19 1     -11.233363335510
20 1     -11.233355119405
21 1     -11.233358008240
22 1     -11.233362974624
23 1     -11.233353285105
24 1     -11.233359104494
25 1     -11.233368569723
26 1     -11.233376176279
27 1     -11.233371508398
28 1     -11.233367496903
29 1     -11.233372292417
30 1     -11.233365089986
