ITEM: TIMESTEP
0
ITEM: NUMBER OF ATOMS
30
ITEM: BOX BOUNDS xy xz yz pp pp pp
-2.4862843610000001e+00 4.9725687210000000e+00 -2.4862843610000001e+00
0.0000000000000000e+00 4.3063712450000002e+00 0.0000000000000000e+00
0.0000000000000000e+00 1.3386510979000001e+01 0.0000000000000000e+00
ITEM: ATOMS id type x y z fx fy fz
1 2       0.000000000000       0.000000000000       1.928820000000      -0.000012932470      -0.000012962401      -0.027283498293
2 2      -0.000000000000       2.870910000000       0.302270000000       0.000012617196       0.000091772951       0.027242359227
3 2       2.486280000000       1.435460000000       2.533340000000       0.000085530688      -0.000066796372       0.027393477805
4 2      -0.000000000000       2.870910000000       4.159910000000      -0.000035115540       0.000087122653      -0.027193455918
5 2       2.486280000000       1.435460000000       6.390990000000       0.000093024834      -0.000108301678      -0.027260020137
6 2       0.000000000000       0.000000000000       4.764430000000       0.000004473534      -0.000013013847       0.027421274958
7 2      -0.000000000000       2.870910000000       6.995520000000       0.000036517619       0.000095680245       0.027259714433
8 2       0.000000000000       0.000000000000       8.622080000000       0.000021373340       0.000000918145      -0.027421206346
9 2      -0.000000000000       2.870910000000      10.853170000000       0.000012175167       0.000089985679      -0.027376611431
10 2       2.486280000000       1.435460000000       9.226600000000       0.000101430071      -0.000064113587       0.027210183060
11 2       0.000000000000       0.000000000000      11.457690000000      -0.000018033388      -0.000012747940       0.027256902427
12 2       2.486280000000       1.435460000000      13.084240000000       0.000092830856      -0.000106977889      -0.027259195275
13 1      -0.753620000000       1.305310000000       3.346630000000      -0.034817650349       0.060130399804      -0.000091739268
14 1       1.507240000000       0.000000000000       3.346630000000       0.069488937638       0.000001316152      -0.000039008465
15 1       1.732660000000       3.001060000000       3.346630000000      -0.034677754401      -0.060154153524      -0.000075846231
16 1       3.239900000000       0.130150000000       1.115540000000       0.034863271164      -0.060211616851       0.000034584440
17 1       3.239910000000       2.740760000000       1.115540000000       0.034613687009       0.060304313985       0.000088739907
18 1       0.979050000000       1.435460000000       1.115540000000      -0.069565793972      -0.000104042165       0.000055162810
19 1       1.732670000000       2.740760000000       7.808790000000      -0.034746729994       0.060309217334       0.000137305762
20 1       3.993530000000       1.435460000000       7.808790000000       0.069471287858      -0.000150622730       0.000162002803
21 1       1.732670000000       0.130150000000       7.808790000000      -0.034871303036      -0.060194792332       0.000144245116
22 1       0.753620000000       1.565610000000       5.577720000000       0.034669042783      -0.060316168871      -0.000161247437
23 1       0.753620000000       4.176220000000       5.577720000000       0.034801285946       0.060218489973      -0.000108511801
24 1      -1.507240000000       2.870910000000       5.577720000000      -0.069526280139       0.000148550623      -0.000167898753
25 1      -0.753620000000       4.176220000000      12.270970000000      -0.034776741844       0.060209107145      -0.000026506586
26 1       1.507240000000       2.870910000000      12.270970000000       0.069482862266       0.000131079402      -0.000067024509
27 1      -0.753620000000       1.565610000000      12.270970000000      -0.034724717584      -0.060288294067      -0.000026645747
28 1      -1.732660000000       3.001060000000      10.039880000000       0.034715248188      -0.060141482487       0.000040409162
29 1       0.753620000000       1.305310000000      10.039880000000       0.034741894849       0.060160043996       0.000055969869
30 1       3.465330000000       0.000000000000      10.039880000000      -0.069534438289      -0.000031911348       0.000056084417
