30
Config_type=bulk_alpha_phase Weight=1.0 Lattice="4.972568721 0.000000000 0.000000000 -2.486284361 4.306371245 0.000000000 0.000000000 0.000000000 13.386510979" Energy=-254.51643160 Virial="22.75027 0.00001 -0.00005 0.00001 22.75021 -0.00004 -0.00005 -0.00004 20.23256" pbc="T T T" Properties=species:S:1:pos:R:3:forces:R:3
Ga	      0.00000      0.00000      1.92882        -0.000023     -0.000005     -0.007657
Ga	     -0.00000      2.87091      0.30227         0.000016      0.000106      0.007613
Ga	      2.48628      1.43546      2.53334         0.000104     -0.000076      0.007896
Ga	     -0.00000      2.87091      4.15991        -0.000040      0.000095     -0.007589
Ga	      2.48628      1.43546      6.39099         0.000111     -0.000110     -0.007681
Ga	      0.00000      0.00000      4.76443         0.000005     -0.000015      0.007900
Ga	     -0.00000      2.87091      6.99552         0.000026      0.000100      0.007683
Ga	      0.00000      0.00000      8.62208         0.000021     -0.000001     -0.007891
Ga	     -0.00000      2.87091     10.85317         0.000009      0.000103     -0.007845
Ga	      2.48628      1.43546      9.22660         0.000116     -0.000072      0.007605
Ga	      0.00000      0.00000     11.45769        -0.000021     -0.000022      0.007609
Ga	      2.48628      1.43546     13.08424         0.000104     -0.000110     -0.007633
O	     -0.75362      1.30531      3.34663        -0.002983      0.004994     -0.000114
O	      1.50724      0.00000      3.34663         0.005824      0.000000     -0.000059
O	      1.73266      3.00106      3.34663        -0.002842     -0.005005     -0.000085
O	      3.23990      0.13015      1.11554         0.003016     -0.005103      0.000025
O	      3.23991      2.74076      1.11554         0.002823      0.005167      0.000068
O	      0.97905      1.43546      1.11554        -0.005948     -0.000081      0.000038
O	      1.73267      2.74076      7.80879        -0.002915      0.005154      0.000189
O	      3.99353      1.43546      7.80879         0.005762     -0.000143      0.000211
O	      1.73267      0.13015      7.80879        -0.003024     -0.005035      0.000194
O	      0.75362      1.56561      5.57772         0.002824     -0.005185     -0.000225
O	      0.75362      4.17622      5.57772         0.002974      0.005051     -0.000181
O	     -1.50724      2.87091      5.57772        -0.005848      0.000167     -0.000234
O	     -0.75362      4.17622     12.27097        -0.002907      0.005022     -0.000016
O	      1.50724      2.87091     12.27097         0.005766      0.000123     -0.000054
O	     -0.75362      1.56561     12.27097        -0.002869     -0.005107     -0.000011
O	     -1.73266      3.00106     10.03988         0.002907     -0.005034      0.000076
O	      0.75362      1.30531     10.03988         0.002929      0.005062      0.000083
O	      3.46533      0.00000     10.03988        -0.005916     -0.000042      0.000083
