ITEM: TIMESTEP
0
ITEM: NUMBER OF ATOMS
160
ITEM: BOX BOUNDS pp pp pp
0.0000000000000000e+00 8.3665628919999993e+00
0.0000000000000000e+00 8.3665628919999993e+00
0.0000000000000000e+00 2.5099688678000000e+01
ITEM: ATOMS id type c_pe_atom
1 2      -4.575628980879
2 2      -4.392705858614
3 2      -4.391308770843
4 2      -4.536132173344
5 2      -4.523149310570
6 2      -4.593372315588
7 2      -4.445904072600
8 2      -4.402079892908
9 2      -4.423733031219
10 2      -4.389580043906
11 2      -4.383370796008
12 2      -4.525853650775
13 2      -4.575348880838
14 2      -4.515077204426
15 2      -4.390508071091
16 2      -4.411839557890
17 2      -4.461392600097
18 2      -4.583763930879
19 2      -4.446636196641
20 2      -4.412709308127
21 2      -4.953448620048
22 2      -4.874055252606
23 2      -5.065402009035
24 2      -4.732332668867
25 2      -4.875147035523
26 2      -5.178680410640
27 2      -5.150579623073
28 2      -4.700918344225
29 2      -5.139809257006
30 2      -4.996598299501
31 2      -4.872944086846
32 2      -4.864210423608
33 2      -4.824758048995
34 2      -4.781025082152
35 2      -4.832804321339
36 2      -4.774265318971
37 2      -5.014512844510
38 2      -4.799695671496
39 2      -5.139365788427
40 2      -5.155476616407
41 2      -4.867036138956
42 2      -4.965377962161
43 2      -4.886016529607
44 2      -4.822403184119
45 2      -4.789421659120
46 2      -4.770286464093
47 2      -4.841402036825
48 2      -5.000844002074
49 2      -4.839402834793
50 2      -5.159681614242
51 2      -5.177020342407
52 2      -4.834611916794
53 2      -4.760227900778
54 2      -4.837172667456
55 2      -4.827240934462
56 2      -4.829980174166
57 2      -4.880580087553
58 2      -4.867257885677
59 2      -4.824352470806
60 2      -5.146932335301
61 2      -4.762610122491
62 2      -4.720008676063
63 2      -4.730999489780
64 2      -4.739463859496
65 1     -11.045920060545
66 1     -11.098275848164
67 1     -11.000453398360
68 1     -11.033008630690
69 1     -11.018398843231
70 1     -10.894044580428
71 1     -11.027194590515
72 1     -10.665884991164
73 1     -10.980915127415
74 1     -10.653790463603
75 1     -10.985620715601
76 1     -10.960465823608
77 1     -11.189203424769
78 1     -10.986746626504
79 1     -10.991647267070
80 1     -10.939377370567
81 1     -10.977009781123
82 1     -11.062063782232
83 1     -10.965382721708
84 1     -11.005718035913
85 1     -11.213627505437
86 1     -11.041952138370
87 1     -11.072592063406
88 1     -10.997878994886
89 1     -10.989862710450
90 1     -11.043929491367
91 1     -10.661062344815
92 1     -11.073990179879
93 1     -10.986734979469
94 1     -11.040804315460
95 1     -10.932789700987
96 1     -10.892612648491
97 1     -10.892456208479
98 1     -10.888761258544
99 1     -10.975594495640
100 1     -10.978660627676
101 1     -11.060753850143
102 1     -10.650692523742
103 1     -10.616272033205
104 1     -10.988481155930
105 1     -10.658890354898
106 1     -10.998555742582
107 1     -11.026568455852
108 1     -10.944332883000
109 1     -11.012766600768
110 1     -11.109842396029
111 1     -11.049927920835
112 1     -10.985964917705
113 1     -11.198114915296
114 1     -11.052748646169
115 1     -11.023974939186
116 1     -11.014534602575
117 1     -11.030494498983
118 1     -11.055786214644
119 1     -11.007427963619
120 1     -11.202885782733
121 1     -11.008540280376
122 1     -11.001430349831
123 1     -10.896771736325
124 1     -10.995967922950
125 1     -10.962560360208
126 1     -11.064984198509
127 1     -11.089889808424
128 1     -11.053102667580
129 1     -10.993291590388
130 1     -11.019283204257
131 1     -11.188404777949
132 1     -11.082335386400
133 1     -11.028632824073
134 1     -10.935791752734
135 1     -11.064944612397
136 1     -11.163299714436
137 1     -10.901125486051
138 1     -11.049090761510
139 1     -11.092500150729
140 1     -10.906000065627
141 1     -11.028324912824
142 1     -11.041137161509
143 1     -10.922214000810
144 1     -11.052490696037
145 1     -10.997591921925
146 1     -10.610551502482
147 1     -11.068521710498
148 1     -10.917495795477
149 1     -11.093049036977
150 1     -11.000539477180
151 1     -11.029346725572
152 1     -10.955090585568
153 1     -11.104318087181
154 1     -11.193438465843
155 1     -10.940042245097
156 1     -10.964987464908
157 1     -11.062212870753
158 1     -11.186027455304
159 1     -10.658918875532
160 1     -10.925147479362
