ITEM: TIMESTEP
0
ITEM: NUMBER OF ATOMS
80
ITEM: BOX BOUNDS pp pp pp
0.0000000000000000e+00 9.4297664440000002e+00
0.0000000000000000e+00 9.4297664440000002e+00
0.0000000000000000e+00 9.4297664440000002e+00
ITEM: ATOMS id type c_pe_atom
1 2      -6.223759017092
2 2      -5.950800025837
3 2      -5.950836099561
4 2      -5.950794406942
5 2      -5.950836099561
6 2      -5.950776534387
7 2      -5.950794406942
8 2      -6.223759017092
9 2      -6.223730273695
10 2      -6.223759017092
11 2      -5.950776534387
12 2      -5.950794406942
13 2      -5.950800025837
14 2      -5.950776534387
15 2      -5.950800025837
16 2      -5.950836099561
17 2      -6.223787760047
18 2      -5.950829158795
19 2      -5.950807392306
20 2      -5.950834777019
21 2      -5.950807392306
22 2      -5.950866956744
23 2      -5.950834777019
24 2      -6.223787760047
25 2      -6.223816501463
26 2      -6.223787760047
27 2      -5.950866956744
28 2      -5.950834777019
29 2      -5.950829158795
30 2      -5.950866956744
31 2      -5.950829158795
32 2      -5.950807392306
33 1      -5.885344562389
34 1      -5.885455116821
35 1      -5.885348223938
36 1      -5.885389042297
37 1      -5.885390127890
38 1      -5.885333220315
39 1      -5.885348223938
40 1      -5.885390127890
41 1      -5.885333220315
42 1      -5.885427188030
43 1      -5.885348223938
44 1      -5.885344562389
45 1      -5.885414358657
46 1      -5.885390127890
47 1      -5.885455116821
48 1      -5.885389042297
49 1      -5.885427188030
50 1      -5.885414358657
51 1      -5.885427188030
52 1      -5.885455116821
53 1      -5.885344562389
54 1      -5.885414358657
55 1      -5.885389042297
56 1      -5.885333220315
57 1      -5.885362505635
58 1      -5.885418999315
59 1      -5.885327437101
60 1      -5.885385017966
61 1      -5.885315283340
62 1      -5.885273790297
63 1      -5.885327437101
64 1      -5.885315283340
65 1      -5.885273790297
66 1      -5.885348530927
67 1      -5.885327437101
68 1      -5.885362505635
69 1      -5.885391108640
70 1      -5.885315283340
71 1      -5.885418999315
72 1      -5.885385017966
73 1      -5.885348530927
74 1      -5.885391108640
75 1      -5.885348530927
76 1      -5.885418999315
77 1      -5.885362505635
78 1      -5.885391108640
79 1      -5.885385017966
80 1      -5.885273790297
