ITEM: TIMESTEP
0
ITEM: NUMBER OF ATOMS
20
ITEM: BOX BOUNDS xy xz yz pp pp pp
-1.3652377397480000e+00 1.2236159064971000e+01 0.0000000000000000e+00
0.0000000000000000e+00 3.0301779560000002e+00 -1.3652377397480000e+00
0.0000000000000000e+00 5.6098192148810000e+00 0.0000000000000000e+00
ITEM: ATOMS id type c_pe_atom
1 2      -4.662852753411
2 2      -4.662859644345
3 2      -4.120346927627
4 2      -4.120354136682
5 2      -4.662859846304
6 2      -4.662868850302
7 2      -4.120341841887
8 2      -4.120345713618
9 1     -11.361402003465
10 1     -11.361394977553
11 1     -11.135974225578
12 1     -11.135975837125
13 1     -11.289153161658
14 1     -11.289151472949
15 1     -11.361403714629
16 1     -11.361398636566
17 1     -11.135978909810
18 1     -11.135975049298
19 1     -11.289143113467
20 1     -11.289139322678
