ITEM: TIMESTEP
0
ITEM: NUMBER OF ATOMS
80
ITEM: BOX BOUNDS pp pp pp
0.0000000000000000e+00 9.3544788879999992e+00
0.0000000000000000e+00 9.3544788879999992e+00
0.0000000000000000e+00 9.3544788879999992e+00
ITEM: ATOMS id type c_pe_atom
1 2      -5.191082953946
2 2      -5.083105932925
3 2      -5.083104344030
4 2      -5.083106745977
5 2      -5.083104344030
6 2      -5.083106375418
7 2      -5.083106745977
8 2      -5.191082953946
9 2      -5.191084615129
10 2      -5.191082953946
11 2      -5.083106375418
12 2      -5.083106745977
13 2      -5.083105932925
14 2      -5.083106375418
15 2      -5.083105932925
16 2      -5.083104344030
17 2      -5.191081292757
18 2      -5.083104647301
19 2      -5.083107351602
20 2      -5.083103834246
21 2      -5.083107351602
22 2      -5.083105320214
23 2      -5.083103834246
24 2      -5.191081292757
25 2      -5.191079631568
26 2      -5.191081292757
27 2      -5.083105320214
28 2      -5.083103834246
29 2      -5.083104647301
30 2      -5.083105320214
31 2      -5.083104647301
32 2      -5.083107351602
33 1     -10.752484230196
34 1     -10.752483097091
35 1     -10.752476012730
36 1     -10.752486244220
37 1     -10.752473623812
38 1     -10.752483384924
39 1     -10.752476012730
40 1     -10.752473623812
41 1     -10.752483384924
42 1     -10.752481289805
43 1     -10.752476012730
44 1     -10.752484230196
45 1     -10.752482893366
46 1     -10.752473623812
47 1     -10.752483097091
48 1     -10.752486244220
49 1     -10.752481289805
50 1     -10.752482893366
51 1     -10.752481289805
52 1     -10.752483097091
53 1     -10.752484230196
54 1     -10.752482893366
55 1     -10.752486244220
56 1     -10.752483384924
57 1     -10.752482645084
58 1     -10.752489526589
59 1     -10.752485075425
60 1     -10.752479336690
61 1     -10.752490701193
62 1     -10.752476447472
63 1     -10.752485075425
64 1     -10.752490701193
65 1     -10.752476447472
66 1     -10.752486841193
67 1     -10.752485075425
68 1     -10.752482645084
69 1     -10.752488474608
70 1     -10.752490701193
71 1     -10.752489526589
72 1     -10.752479336690
73 1     -10.752486841193
74 1     -10.752488474608
75 1     -10.752486841193
76 1     -10.752489526589
77 1     -10.752482645084
78 1     -10.752488474608
79 1     -10.752479336690
80 1     -10.752476447472
