ITEM: TIMESTEP
0
ITEM: NUMBER OF ATOMS
160
ITEM: BOX BOUNDS pp pp pp
0.0000000000000000e+00 8.3025822369999993e+00
0.0000000000000000e+00 8.3025822369999993e+00
0.0000000000000000e+00 2.4907746711000001e+01
ITEM: ATOMS id type x y z fx fy fz
1 2       1.204580000000       5.158560000000      21.894540000000      -0.306418932209       0.033081918029      -0.025563902310
2 2       5.154400000000       0.837140000000      13.558500000000      -0.019660658545       0.070308238952      -0.173634171703
3 2       7.091090000000       7.339250000000       7.328150000000      -0.061418733101      -0.185012171802      -0.193409495650
4 2       7.226880000000       7.068430000000      15.640810000000      -0.116275990741       0.466492013755       0.190954113614
5 2       5.177810000000       5.210030000000       0.973540000000       0.236822292507      -0.034752258399      -0.146850671895
6 2       3.003420000000       3.177450000000       7.153210000000       0.233026565180      -0.041983429655       0.147109659453
7 2       0.940190000000       1.040770000000       1.090740000000      -0.010626051056      -0.013140222356      -0.058610270368
8 2       5.124490000000       1.028070000000       5.198240000000       0.023841198229      -0.011649985424      -0.181222093246
9 2       3.153050000000       2.935100000000      15.511460000000      -0.065651046593       0.047068152668       0.001868256259
10 2       5.339630000000       1.105280000000      21.728720000000       0.050506570998      -0.102331512557       0.211066659883
11 2       3.105410000000       7.186360000000      11.418910000000       0.012754932699       0.110170116349      -0.155046541313
12 2       7.355120000000       3.167070000000      19.645210000000      -0.119138791172      -0.381028349494      -0.023478422121
13 2       1.010000000000       5.051080000000      13.375410000000      -0.040371689947       0.291658566338       0.119834286370
14 2       7.267260000000       3.191280000000       3.176970000000      -0.283428500759       0.008934498485       0.151575405168
15 2       5.055220000000       5.295800000000       9.288350000000       0.206822811892      -0.025778466037       0.193285144661
16 2       7.292320000000       7.372420000000      23.900950000000       0.073773348522      -0.041854034281       0.011494979663
17 2       3.169120000000       7.390350000000      19.771860000000       0.004916564016      -0.068048361096      -0.033188743392
18 2       0.902590000000       1.069540000000       9.436960000000       0.026816471002      -0.238385579406      -0.136845623040
19 2       3.201340000000       7.360510000000       3.057050000000      -0.018576558241       0.008761348023       0.013813743169
20 2       1.164640000000       1.030460000000      17.671090000000      -0.084484022037      -0.119983949881      -0.094448601194
21 2       3.889900000000       0.192790000000       8.315620000000       0.072734916832      -0.005507299391       0.041045284914
22 2       6.089640000000       6.057240000000      12.428960000000       0.280765017185       0.087173257386      -0.193576024954
23 2       2.143680000000       2.126550000000      20.771560000000      -0.030565674431      -0.206824319037       0.015378527381
24 2       6.349080000000       6.237330000000      20.716240000000      -0.011037990492       0.078543849266       0.358077164565
25 2       1.942110000000       6.339950000000       8.211210000000      -0.097624394952      -0.096136703001      -0.039554335288
26 2       8.258060000000       2.043920000000       6.188220000000      -0.199618370658      -0.122693571758       0.061376525794
27 2       1.977750000000       2.074810000000       4.190320000000       0.065879226412      -0.068954577010      -0.163984787019
28 2       0.042440000000       1.995190000000      14.484300000000       0.019126753224      -0.007882945335       0.396957404684
29 2       0.169730000000       6.150620000000      18.638410000000      -0.043475237371       0.303056221373       0.214369859507
30 2       6.219400000000       0.057190000000       2.086350000000       0.013315454234      -0.021546326654      -0.045341527456
31 2       6.046890000000       0.075630000000      10.441190000000       0.395200445260      -0.184583996395       0.173796870186
32 2       4.145260000000       2.180220000000      18.632390000000       0.263020488736      -0.060431986128      -0.224722232986
33 2       6.357040000000       8.257390000000      18.682130000000      -0.256290345759       0.417082204789      -0.177647209104
34 2       6.299100000000       2.044240000000      16.591790000000      -0.076814899622      -0.537403956425       0.245582031653
35 2       0.159120000000       2.054540000000      22.885840000000      -0.137784288053       0.205670733543       0.112840717284
36 2       2.013110000000       8.086960000000      14.626850000000      -0.140136127557       0.084261784698       0.125332620341
37 2       3.982030000000       5.973140000000      14.538290000000       0.132322069984       0.054305155461       0.069476274330
38 2       6.206230000000       4.172480000000       6.244600000000      -0.345492975816       0.183132578783      -0.275588202688
39 2       4.169080000000       6.333010000000      22.872120000000       0.300490308327       0.368150762722      -0.101917642164
40 2       0.099230000000       4.153050000000      16.606690000000       0.118927705864      -0.280757835878      -0.055788516641
41 2       2.071200000000       4.204100000000       2.073840000000      -0.011630195306      -0.002833538076       0.009794854308
42 2       4.109670000000       4.264690000000      20.705370000000       0.185964585369       0.013888126877      -0.284429277623
43 2       4.113970000000       8.107200000000      16.669420000000       0.393541961963       0.182664024844       0.112999785127
44 2       6.239580000000       4.207240000000      22.795470000000       0.407982766681      -0.120531573556       0.280252970154
45 2       8.238810000000       6.146970000000      10.362970000000      -0.160900433743       0.301271913813       0.221796122937
46 2       8.284830000000       8.240700000000      12.474240000000      -0.170283162941      -0.222859692186      -0.168171716059
47 2       0.042230000000       4.236650000000       0.031790000000      -0.436940205154      -0.038553622350      -0.265389545711
48 2       6.169660000000       4.029540000000      14.503840000000       0.053789074190       0.047356901289      -0.304132854494
49 2       4.092990000000       4.160830000000       4.123240000000       0.418334916674       0.109105101771       0.215132965110
50 2       2.111620000000       2.018740000000      12.378290000000       0.178989312152      -0.145599189238       0.217592954992
51 2       2.077820000000       4.071500000000      10.391250000000       0.096132387774       0.265515874225      -0.146290104921
52 2       0.039740000000       6.369030000000       2.179810000000       0.065986006242      -0.116838748498      -0.073196216728
53 2       0.201780000000       8.263450000000      20.859680000000      -0.188461534715      -0.117682101988       0.030093634612
54 2       4.087070000000       2.030080000000       1.965460000000      -0.052980778308       0.132818248384       0.043902508712
55 2       6.148730000000       2.042930000000      24.863260000000       0.058507571122       0.232139837171      -0.187445764898
56 2       8.272060000000       4.110200000000       8.300510000000       0.029157450723      -0.000915839296      -0.022439301538
57 2       6.037010000000       2.150040000000       8.405600000000       0.100009596109       0.108554229581      -0.032423456155
58 2       3.982260000000       6.368690000000       6.165610000000       0.113019846744      -0.387796696456      -0.171909169744
59 2       6.284140000000       6.362220000000       4.202640000000      -0.027829986821      -0.313227762182       0.140847220586
60 2       2.160210000000       6.330600000000      24.871120000000      -0.170644242413       0.093721312626       0.141236588545
61 2       5.128060000000       3.096910000000      11.458100000000      -0.312306923354       0.023103133297       0.099116896707
62 2       3.144770000000       1.073100000000      23.848610000000       0.092352802465      -0.468191249105       0.019121526381
63 2       3.152040000000       5.123470000000      17.638970000000      -0.222371827783      -0.066613567351      -0.020230776435
64 2       0.978980000000       7.325530000000       5.180990000000      -0.017826480413       0.313873861594      -0.032660666225
65 1       2.100140000000       2.131960000000       2.106320000000       0.135139600603       0.175779513196       0.138913029685
66 1       6.087100000000       6.181840000000       6.192210000000       0.103624995922      -0.009357623547      -0.086878381494
67 1       4.191400000000       8.250240000000       6.364260000000       0.081133854423       0.089582896280      -0.053793354237
68 1       4.267380000000       0.126980000000       2.042880000000       0.010413498935       0.017892573322       0.116560659756
69 1       8.190790000000       6.272350000000       4.093610000000       0.299403464414      -0.177188524604       0.241214109016
70 1       0.023690000000       2.134910000000       4.228860000000       0.172927186640       0.096796065525       0.237263110158
71 1       6.154340000000       4.139910000000       8.272320000000       0.278108122511      -0.161574944772      -0.129207753970
72 1       1.920150000000       4.383530000000       0.203470000000      -0.044981875417       0.004087944684       0.040542784343
73 1       8.298170000000       4.308720000000       2.052340000000       0.256317117777       0.059543769630      -0.150694986695
74 1       8.077170000000       3.998230000000       6.432210000000      -0.043005447576      -0.072748037668       0.096918139898
75 1       4.239890000000       2.122810000000       0.045080000000      -0.319281513201       0.227245867694      -0.196173342261
76 1       3.979980000000       6.336940000000       8.173700000000      -0.089733128827       0.062386206278      -0.048524172307
77 1       2.095770000000       0.081440000000       4.130940000000       0.035389439855       0.131481696858       0.003591928274
78 1       6.106150000000       8.255640000000       4.056620000000      -0.097280984367       0.143163848664       0.019911762598
79 1       2.073040000000       6.301850000000       6.288210000000      -0.235239190253      -0.143029135736      -0.254876234717
80 1       6.166810000000       2.110670000000       2.012990000000      -0.074104600991      -0.090022037721      -0.096833644600
81 1       4.142280000000       4.091870000000       2.095320000000      -0.255258778546      -0.054103482050       0.172477780658
82 1       4.186340000000       4.291550000000       6.125310000000      -0.204969190597      -0.156402486533       0.078707234738
83 1       8.101190000000       2.084180000000       8.278420000000       0.012017131101       0.300737254643      -0.220337284088
84 1       0.046510000000       6.247010000000       0.092730000000       0.213958905757      -0.105835707609      -0.105950494227
85 1       8.159720000000       0.066480000000       6.244190000000       0.089214455042       0.105191288896      -0.062279826970
86 1       8.171520000000       8.276690000000       2.106380000000       0.009814509640      -0.008407591730      -0.121441959397
87 1       4.204080000000       6.181450000000       4.187080000000      -0.168448192740       0.077859108360       0.049654984422
88 1       4.084670000000       2.151490000000       4.066680000000      -0.189516614839       0.047315642216       0.071785048950
89 1       6.196000000000       2.150780000000       6.299770000000       0.174795432874       0.027627985213      -0.029732347860
90 1       2.035530000000       6.273020000000       2.041440000000      -0.143168834679      -0.172373018782      -0.100433032021
91 1       2.216420000000       4.022590000000       3.942740000000       0.058335696471       0.023339171367      -0.020258821912
92 1       6.103650000000       4.280470000000       4.229810000000       0.097364749373       0.017966579563      -0.020471611947
93 1       6.312830000000       0.147160000000       0.111930000000       0.100349921559      -0.056933185307       0.021602837631
94 1       2.001770000000       8.257330000000       8.425420000000       0.148036917126       0.191240035165       0.140012932819
95 1       6.268270000000       6.295840000000       2.138840000000       0.073404198200       0.073836312248       0.114500687737
96 1       1.909590000000       2.119430000000       6.124440000000      -0.052456067550      -0.035296536470       0.024090704085
97 1       2.024510000000       2.123760000000      10.439320000000       0.056553236488       0.032911749420       0.086418495809
98 1       6.145150000000       6.069830000000      14.457990000000      -0.158910349997      -0.199718166640      -0.165018573439
99 1       4.070260000000       8.109470000000      14.666300000000       0.015144805678      -0.165745200204       0.097709914829
100 1       4.162900000000       8.156980000000      10.257000000000      -0.140172895395      -0.048496457946       0.082690142440
101 1       8.162310000000       6.232550000000      12.368670000000       0.035759824617      -0.146794569500      -0.030020416175
102 1       0.153420000000       1.808380000000      12.618430000000       0.004825460214      -0.050270583816      -0.100019496627
103 1       6.468070000000       3.903820000000      16.391030000000      -0.008898390784       0.097866427263       0.016946109192
104 1       2.004350000000       4.277630000000       8.320630000000      -0.261537830408      -0.039799838619       0.182750850989
105 1       0.111920000000       4.278560000000      10.168960000000       0.010021616226       0.005016932874      -0.045486829109
106 1       8.297190000000       3.983770000000      14.549240000000      -0.174682244504      -0.040028949854       0.145778200404
107 1       4.116860000000       2.085760000000       8.178070000000      -0.219432301107      -0.131311652804      -0.182815644233
108 1       4.125540000000       6.215410000000      16.491310000000       0.093360326243      -0.092752889551       0.261126854690
109 1       2.002990000000       8.256950000000      12.520880000000      -0.014159719026       0.120069064963      -0.131035845347
110 1       6.272910000000       8.136380000000      12.413580000000      -0.042100291641       0.154361836344       0.012289617962
111 1       2.075430000000       6.185220000000      14.402280000000       0.125680401637      -0.296635279504      -0.211510975520
112 1       6.105830000000       1.990060000000      10.320480000000       0.203266074977       0.232507767387       0.202205254143
113 1       4.066610000000       4.204100000000      10.384750000000      -0.119334034740      -0.106871408020       0.153697591896
114 1       4.236550000000       4.080720000000      14.580750000000       0.017649651689       0.135176968792       0.093412645577
115 1       0.022540000000       2.019330000000      16.506050000000      -0.017657819873       0.231677564946       0.100679279048
116 1       8.249240000000       6.227360000000       8.333310000000       0.148790196152      -0.280801598752       0.123620674545
117 1       0.027630000000       8.197810000000      14.529700000000       0.154047390403       0.141458764041      -0.183475477778
118 1       8.118920000000       8.169740000000      10.468880000000       0.185344474513       0.170068458118      -0.041868678310
119 1       4.208560000000       6.271750000000      12.593260000000      -0.064136626100       0.062188725851       0.027488897195
120 1       4.107350000000       1.926690000000      12.498670000000      -0.117157306518      -0.007090646011      -0.066437547735
121 1       6.313260000000       1.952300000000      14.561520000000       0.116008643512       0.276139594460       0.056559592404
122 1       1.966760000000       6.147570000000      10.305150000000      -0.047433426952      -0.127797630502       0.038403218661
123 1       2.055820000000       3.973830000000      12.331730000000      -0.001404912802      -0.039435109895      -0.070006320709
124 1       6.192800000000       4.152020000000      12.563650000000       0.084865383376      -0.229638018649      -0.242799367509
125 1       6.044370000000       0.107390000000       8.435710000000      -0.070112062683       0.096951274651       0.058761611154
126 1       2.203700000000       0.025700000000      16.529890000000      -0.107341684787       0.073090026635       0.061729460352
127 1       6.231800000000       6.271720000000      10.424500000000      -0.000332130000      -0.154576705018       0.112791486907
128 1       2.063590000000       1.850850000000      14.447550000000      -0.254211187832       0.144875140270      -0.201698026601
129 1       2.247730000000       2.005300000000      18.796200000000      -0.045531236876      -0.093522057734       0.050996124890
130 1       6.276430000000       6.247980000000      22.741510000000      -0.185960493007      -0.062654670998       0.079602683559
131 1       4.288080000000       0.028450000000      22.794380000000       0.049383196672      -0.158361310388       0.089238888861
132 1       4.334090000000       0.075240000000      18.630110000000      -0.115590326247      -0.306405445671       0.095479731313
133 1       0.100990000000       6.281000000000      20.770580000000      -0.092712221857       0.096343129646      -0.240560007786
134 1       0.101710000000       2.055480000000      20.819190000000       0.197413061112       0.078255962082       0.111359807813
135 1       6.337990000000       4.124220000000      24.821160000000      -0.119749379784      -0.014328471835       0.027821951407
136 1       2.085040000000       4.001080000000      16.584200000000      -0.043425932680       0.011670774049       0.069303019632
137 1       0.089790000000       4.200060000000      18.558810000000      -0.099811576579       0.204430076302      -0.217711354954
138 1       8.260390000000       4.115050000000      22.923390000000       0.134416284637       0.082022343889      -0.025433392352
139 1       4.297430000000       1.914510000000      16.666100000000      -0.037535974289       0.282018507033      -0.102316307355
140 1       4.119720000000       6.263400000000      24.821570000000      -0.195461615198      -0.132265326134      -0.197938868070
141 1       2.089530000000       0.148790000000      20.785450000000       0.057392105996       0.039555393161      -0.103219430579
142 1       6.428650000000       0.001290000000      20.686140000000      -0.022705529486      -0.256165804349      -0.132215846862
143 1       2.219280000000       6.285570000000      22.935590000000      -0.016703056035      -0.018858782350       0.009513143722
144 1       6.242370000000       1.976100000000      18.606710000000      -0.013489797341       0.124034469928      -0.018117420678
145 1       4.214420000000       4.089520000000      18.776540000000       0.147957787931       0.235338065756      -0.327573324953
146 1       4.385540000000       4.401330000000      22.599280000000      -0.093315647298      -0.017076293988       0.045607192309
147 1       8.232880000000       2.219880000000      24.870550000000       0.185778048160      -0.054979226084      -0.060813619686
148 1       0.063050000000       6.093630000000      16.684290000000       0.088968713406      -0.078251215928       0.157426416469
149 1       8.248880000000       0.149810000000      22.754030000000      -0.107451981722      -0.036588555466       0.075742534592
150 1       0.061020000000       8.263530000000      18.771610000000      -0.002899119708      -0.210791048477      -0.167849038223
151 1       4.321840000000       6.292750000000      20.782920000000       0.069440152646      -0.240992916686       0.095429222393
152 1       4.213820000000       2.180860000000      20.661260000000      -0.138559916636       0.230286508582      -0.034930376319
153 1       6.361780000000       2.217070000000      22.878330000000      -0.086342126747       0.004722283804       0.044053888624
154 1       2.136480000000       6.263870000000      18.718750000000       0.036069365741       0.076296829371       0.030278005481
155 1       2.195650000000       4.073340000000      20.795600000000       0.117603501977      -0.092942030809       0.086996242105
156 1       6.296230000000       4.246120000000      20.776970000000      -0.277204154538       0.071618045472       0.145940879167
157 1       6.194160000000       0.009550000000      16.673700000000       0.071814224395      -0.022785907120       0.010900206087
158 1       2.048880000000       0.015210000000       0.020260000000      -0.052775219868      -0.058766907867      -0.019290014165
159 1       6.531050000000       6.383190000000      18.849870000000       0.042086854803      -0.022355550458      -0.024589116428
160 1       2.049790000000       2.094110000000      22.747600000000       0.196530589958       0.111553546853       0.156155302823
