# LAMMPS data file converted from structure.xyz
160 atoms
2 atom types
0.000000000000 8.302582237000 xlo xhi
0.000000000000 8.302582237000 ylo yhi
0.000000000000 24.907746711000 zlo zhi

Masses

1 15.9994  # O
2 69.7230  # Ga

Atoms  # atomic

1 2 1.204580000000 5.158560000000 21.894540000000
2 2 5.154400000000 0.837140000000 13.558500000000
3 2 7.091090000000 7.339250000000 7.328150000000
4 2 7.226880000000 7.068430000000 15.640810000000
5 2 5.177810000000 5.210030000000 0.973540000000
6 2 3.003420000000 3.177450000000 7.153210000000
7 2 0.940190000000 1.040770000000 1.090740000000
8 2 5.124490000000 1.028070000000 5.198240000000
9 2 3.153050000000 2.935100000000 15.511460000000
10 2 5.339630000000 1.105280000000 21.728720000000
11 2 3.105410000000 7.186360000000 11.418910000000
12 2 7.355120000000 3.167070000000 19.645210000000
13 2 1.010000000000 5.051080000000 13.375410000000
14 2 7.267260000000 3.191280000000 3.176970000000
15 2 5.055220000000 5.295800000000 9.288350000000
16 2 7.292320000000 7.372420000000 23.900950000000
17 2 3.169120000000 7.390350000000 19.771860000000
18 2 0.902590000000 1.069540000000 9.436960000000
19 2 3.201340000000 7.360510000000 3.057050000000
20 2 1.164640000000 1.030460000000 17.671090000000
21 2 3.889900000000 0.192790000000 8.315620000000
22 2 6.089640000000 6.057240000000 12.428960000000
23 2 2.143680000000 2.126550000000 20.771560000000
24 2 6.349080000000 6.237330000000 20.716240000000
25 2 1.942110000000 6.339950000000 8.211210000000
26 2 8.258060000000 2.043920000000 6.188220000000
27 2 1.977750000000 2.074810000000 4.190320000000
28 2 0.042440000000 1.995190000000 14.484300000000
29 2 0.169730000000 6.150620000000 18.638410000000
30 2 6.219400000000 0.057190000000 2.086350000000
31 2 6.046890000000 0.075630000000 10.441190000000
32 2 4.145260000000 2.180220000000 18.632390000000
33 2 6.357040000000 8.257390000000 18.682130000000
34 2 6.299100000000 2.044240000000 16.591790000000
35 2 0.159120000000 2.054540000000 22.885840000000
36 2 2.013110000000 8.086960000000 14.626850000000
37 2 3.982030000000 5.973140000000 14.538290000000
38 2 6.206230000000 4.172480000000 6.244600000000
39 2 4.169080000000 6.333010000000 22.872120000000
40 2 0.099230000000 4.153050000000 16.606690000000
41 2 2.071200000000 4.204100000000 2.073840000000
42 2 4.109670000000 4.264690000000 20.705370000000
43 2 4.113970000000 8.107200000000 16.669420000000
44 2 6.239580000000 4.207240000000 22.795470000000
45 2 8.238810000000 6.146970000000 10.362970000000
46 2 8.284830000000 8.240700000000 12.474240000000
47 2 0.042230000000 4.236650000000 0.031790000000
48 2 6.169660000000 4.029540000000 14.503840000000
49 2 4.092990000000 4.160830000000 4.123240000000
50 2 2.111620000000 2.018740000000 12.378290000000
51 2 2.077820000000 4.071500000000 10.391250000000
52 2 0.039740000000 6.369030000000 2.179810000000
53 2 0.201780000000 8.263450000000 20.859680000000
54 2 4.087070000000 2.030080000000 1.965460000000
55 2 6.148730000000 2.042930000000 24.863260000000
56 2 8.272060000000 4.110200000000 8.300510000000
57 2 6.037010000000 2.150040000000 8.405600000000
58 2 3.982260000000 6.368690000000 6.165610000000
59 2 6.284140000000 6.362220000000 4.202640000000
60 2 2.160210000000 6.330600000000 24.871120000000
61 2 5.128060000000 3.096910000000 11.458100000000
62 2 3.144770000000 1.073100000000 23.848610000000
63 2 3.152040000000 5.123470000000 17.638970000000
64 2 0.978980000000 7.325530000000 5.180990000000
65 1 2.100140000000 2.131960000000 2.106320000000
66 1 6.087100000000 6.181840000000 6.192210000000
67 1 4.191400000000 8.250240000000 6.364260000000
68 1 4.267380000000 0.126980000000 2.042880000000
69 1 8.190790000000 6.272350000000 4.093610000000
70 1 0.023690000000 2.134910000000 4.228860000000
71 1 6.154340000000 4.139910000000 8.272320000000
72 1 1.920150000000 4.383530000000 0.203470000000
73 1 8.298170000000 4.308720000000 2.052340000000
74 1 8.077170000000 3.998230000000 6.432210000000
75 1 4.239890000000 2.122810000000 0.045080000000
76 1 3.979980000000 6.336940000000 8.173700000000
77 1 2.095770000000 0.081440000000 4.130940000000
78 1 6.106150000000 8.255640000000 4.056620000000
79 1 2.073040000000 6.301850000000 6.288210000000
80 1 6.166810000000 2.110670000000 2.012990000000
81 1 4.142280000000 4.091870000000 2.095320000000
82 1 4.186340000000 4.291550000000 6.125310000000
83 1 8.101190000000 2.084180000000 8.278420000000
84 1 0.046510000000 6.247010000000 0.092730000000
85 1 8.159720000000 0.066480000000 6.244190000000
86 1 8.171520000000 8.276690000000 2.106380000000
87 1 4.204080000000 6.181450000000 4.187080000000
88 1 4.084670000000 2.151490000000 4.066680000000
89 1 6.196000000000 2.150780000000 6.299770000000
90 1 2.035530000000 6.273020000000 2.041440000000
91 1 2.216420000000 4.022590000000 3.942740000000
92 1 6.103650000000 4.280470000000 4.229810000000
93 1 6.312830000000 0.147160000000 0.111930000000
94 1 2.001770000000 8.257330000000 8.425420000000
95 1 6.268270000000 6.295840000000 2.138840000000
96 1 1.909590000000 2.119430000000 6.124440000000
97 1 2.024510000000 2.123760000000 10.439320000000
98 1 6.145150000000 6.069830000000 14.457990000000
99 1 4.070260000000 8.109470000000 14.666300000000
100 1 4.162900000000 8.156980000000 10.257000000000
101 1 8.162310000000 6.232550000000 12.368670000000
102 1 0.153420000000 1.808380000000 12.618430000000
103 1 6.468070000000 3.903820000000 16.391030000000
104 1 2.004350000000 4.277630000000 8.320630000000
105 1 0.111920000000 4.278560000000 10.168960000000
106 1 8.297190000000 3.983770000000 14.549240000000
107 1 4.116860000000 2.085760000000 8.178070000000
108 1 4.125540000000 6.215410000000 16.491310000000
109 1 2.002990000000 8.256950000000 12.520880000000
110 1 6.272910000000 8.136380000000 12.413580000000
111 1 2.075430000000 6.185220000000 14.402280000000
112 1 6.105830000000 1.990060000000 10.320480000000
113 1 4.066610000000 4.204100000000 10.384750000000
114 1 4.236550000000 4.080720000000 14.580750000000
115 1 0.022540000000 2.019330000000 16.506050000000
116 1 8.249240000000 6.227360000000 8.333310000000
117 1 0.027630000000 8.197810000000 14.529700000000
118 1 8.118920000000 8.169740000000 10.468880000000
119 1 4.208560000000 6.271750000000 12.593260000000
120 1 4.107350000000 1.926690000000 12.498670000000
121 1 6.313260000000 1.952300000000 14.561520000000
122 1 1.966760000000 6.147570000000 10.305150000000
123 1 2.055820000000 3.973830000000 12.331730000000
124 1 6.192800000000 4.152020000000 12.563650000000
125 1 6.044370000000 0.107390000000 8.435710000000
126 1 2.203700000000 0.025700000000 16.529890000000
127 1 6.231800000000 6.271720000000 10.424500000000
128 1 2.063590000000 1.850850000000 14.447550000000
129 1 2.247730000000 2.005300000000 18.796200000000
130 1 6.276430000000 6.247980000000 22.741510000000
131 1 4.288080000000 0.028450000000 22.794380000000
132 1 4.334090000000 0.075240000000 18.630110000000
133 1 0.100990000000 6.281000000000 20.770580000000
134 1 0.101710000000 2.055480000000 20.819190000000
135 1 6.337990000000 4.124220000000 24.821160000000
136 1 2.085040000000 4.001080000000 16.584200000000
137 1 0.089790000000 4.200060000000 18.558810000000
138 1 8.260390000000 4.115050000000 22.923390000000
139 1 4.297430000000 1.914510000000 16.666100000000
140 1 4.119720000000 6.263400000000 24.821570000000
141 1 2.089530000000 0.148790000000 20.785450000000
142 1 6.428650000000 0.001290000000 20.686140000000
143 1 2.219280000000 6.285570000000 22.935590000000
144 1 6.242370000000 1.976100000000 18.606710000000
145 1 4.214420000000 4.089520000000 18.776540000000
146 1 4.385540000000 4.401330000000 22.599280000000
147 1 8.232880000000 2.219880000000 24.870550000000
148 1 0.063050000000 6.093630000000 16.684290000000
149 1 8.248880000000 0.149810000000 22.754030000000
150 1 0.061020000000 8.263530000000 18.771610000000
151 1 4.321840000000 6.292750000000 20.782920000000
152 1 4.213820000000 2.180860000000 20.661260000000
153 1 6.361780000000 2.217070000000 22.878330000000
154 1 2.136480000000 6.263870000000 18.718750000000
155 1 2.195650000000 4.073340000000 20.795600000000
156 1 6.296230000000 4.246120000000 20.776970000000
157 1 6.194160000000 0.009550000000 16.673700000000
158 1 2.048880000000 0.015210000000 0.020260000000
159 1 6.531050000000 6.383190000000 18.849870000000
160 1 2.049790000000 2.094110000000 22.747600000000
