ITEM: TIMESTEP
0
ITEM: NUMBER OF ATOMS
20
ITEM: BOX BOUNDS xy xz yz pp pp pp
-1.4041650886670001e+00 1.2585051584328999e+01 0.0000000000000000e+00
0.0000000000000000e+00 3.1165781429999999e+00 -1.4041650886670001e+00
0.0000000000000000e+00 5.7697733267649998e+00 0.0000000000000000e+00
ITEM: ATOMS id type x y z fx fy fz
1 2       1.551756833649       1.558290000000       1.810088156561      -0.003337404223      -0.000007391447       0.056174469724
2 2       3.336603202603       0.000000000000       3.959681870855       0.003333490194       0.000007391807      -0.056165564159
3 2       0.010135261565       0.000000000000       4.585232605285      -0.016786893325       0.000013736786      -0.031112129260
4 2       4.878224774687       1.558290000000       1.184537422131       0.016858660937      -0.000013736324       0.031125437674
5 2       7.844282314446       0.000000000000       1.810083394894      -0.003315479953       0.000007393421       0.056279194739
6 2       9.629126318760       1.558290000000       3.959686825591       0.003352041836      -0.000007393680      -0.056288769732
7 2       6.302658377722       1.558290000000       4.585237560021      -0.016771423936      -0.000013737254      -0.031141120606
8 2      11.170750255484       0.000000000000       1.184532660464       0.016863600755       0.000013736537       0.031184123722
9 1       5.875524535543       0.000000000000       1.481298931590      -0.018969167438       0.000016680738      -0.006848486643
10 1      -0.987154782889       1.558290000000       4.288473460466       0.018769183727      -0.000016681031       0.006833569126
11 1       1.396742639299       0.000000000000       3.264551072056      -0.032232792780       0.000004014151       0.021008357056
12 1       3.491617396953       1.558290000000       2.505218955360       0.032282806485      -0.000004014299      -0.020997946471
13 1       3.009876005968       1.558290000000       5.138514038163      -0.004516173668      -0.000007796771       0.015569586507
14 1       1.878484030284       0.000000000000       0.631255989254       0.004537114400       0.000007797148      -0.015558706791
15 1      12.168047651701       1.558290000000       1.481303886326      -0.018936853299      -0.000016679978      -0.006908426245
16 1       5.305368333269       0.000000000000       4.288478415202       0.018795567578       0.000016681138       0.006809988904
17 1       7.689265755456       1.558290000000       3.264556026792      -0.032219858325      -0.000004013729       0.020988187057
18 1       9.784142877749       0.000000000000       2.505214193694       0.032252811300       0.000004013774      -0.020970480483
19 1       9.302401486765       0.000000000000       5.138509276496      -0.004512757594       0.000007797556       0.015650062705
20 1       8.171007146441       1.558290000000       0.631260943990       0.004553527329      -0.000007798545      -0.015631346823
