ITEM: TIMESTEP
0
ITEM: NUMBER OF ATOMS
80
ITEM: BOX BOUNDS pp pp pp
0.0000000000000000e+00 9.3921226660000006e+00
0.0000000000000000e+00 9.3921226660000006e+00
0.0000000000000000e+00 9.3921226660000006e+00
ITEM: ATOMS id type c_pe_atom
1 2      -5.974360844048
2 2      -5.688326823099
3 2      -5.688358427710
4 2      -5.688342285627
5 2      -5.688358427710
6 2      -5.688337807398
7 2      -5.688342285627
8 2      -5.974360844048
9 2      -5.974358698876
10 2      -5.974360844048
11 2      -5.688337807398
12 2      -5.688342285627
13 2      -5.688326823099
14 2      -5.688337807398
15 2      -5.688326823099
16 2      -5.688358427710
17 2      -5.974362989209
18 2      -5.688355945329
19 2      -5.688324244204
20 2      -5.688340482787
21 2      -5.688324244204
22 2      -5.688344864533
23 2      -5.688340482787
24 2      -5.974362989209
25 2      -5.974365134372
26 2      -5.974362989209
27 2      -5.688344864533
28 2      -5.688340482787
29 2      -5.688355945329
30 2      -5.688344864533
31 2      -5.688355945329
32 2      -5.688324244204
33 1      -6.057937637743
34 1      -6.057950979947
35 1      -6.057927215017
36 1      -6.057940889876
37 1      -6.057934226584
38 1      -6.057917178773
39 1      -6.057927215017
40 1      -6.057934226584
41 1      -6.057917178773
42 1      -6.057931378451
43 1      -6.057927215017
44 1      -6.057937637743
45 1      -6.057948758809
46 1      -6.057934226584
47 1      -6.057950979947
48 1      -6.057940889876
49 1      -6.057931378451
50 1      -6.057948758809
51 1      -6.057931378451
52 1      -6.057950979947
53 1      -6.057937637743
54 1      -6.057948758809
55 1      -6.057940889876
56 1      -6.057917178773
57 1      -6.057932494514
58 1      -6.057930190829
59 1      -6.057946651950
60 1      -6.057937684976
61 1      -6.057938017491
62 1      -6.057950357537
63 1      -6.057946651950
64 1      -6.057938017491
65 1      -6.057950357537
66 1      -6.057945084411
67 1      -6.057946651950
68 1      -6.057932494514
69 1      -6.057926081242
70 1      -6.057938017491
71 1      -6.057930190829
72 1      -6.057937684976
73 1      -6.057945084411
74 1      -6.057926081242
75 1      -6.057945084411
76 1      -6.057930190829
77 1      -6.057932494514
78 1      -6.057926081242
79 1      -6.057937684976
80 1      -6.057950357537
