ITEM: TIMESTEP
0
ITEM: NUMBER OF ATOMS
80
ITEM: BOX BOUNDS pp pp pp
0.0000000000000000e+00 9.3921226660000006e+00
0.0000000000000000e+00 9.3921226660000006e+00
0.0000000000000000e+00 9.3921226660000006e+00
ITEM: ATOMS id type v_vir_xx v_vir_yy v_vir_zz v_vir_xy v_vir_xz v_vir_yz
1 2      -5.728080018372      -5.728078689469      -5.728073160949      -1.078131196870       1.078134877017       1.078131486676
2 2      -4.915097267875      -4.881960570659      -4.999684021481      -0.000000183355       0.570967827666      -0.000001008402
3 2      -4.999623913553      -4.915065290189      -4.881885847359       0.570987191348       0.000004912515       0.000002358017
4 2      -4.999646106343      -4.915082379767      -4.881950176084      -0.570981490194      -0.000005530230       0.000002475888
5 2      -4.881885847359      -4.999623913553      -4.915065290189       0.000004912515       0.000002358017       0.570987191348
6 2      -4.881916492523      -4.999666941931      -4.915083853013       0.000001626109      -0.000000300951      -0.570975481354
7 2      -4.915082379767      -4.881950176084      -4.999646106343       0.000002475888      -0.570981490194      -0.000005530230
8 2      -5.728073160949      -5.728080018372      -5.728078689469       1.078134877017       1.078131486676      -1.078131196870
9 2      -5.728081215236      -5.728081215236      -5.728081215236      -1.078131888264      -1.078131888264      -1.078131888264
10 2      -5.728078689469      -5.728073160949      -5.728080018372       1.078131486676      -1.078131196870       1.078134877017
11 2      -4.915083853013      -4.881916492523      -4.999666941931      -0.000000300951      -0.570975481354       0.000001626109
12 2      -4.881950176084      -4.999646106343      -4.915082379767      -0.000005530230       0.000002475888      -0.570981490194
13 2      -4.881960570659      -4.999684021481      -4.915097267875      -0.000001008402      -0.000000183355       0.570967827666
14 2      -4.999666941931      -4.915083853013      -4.881916492523      -0.570975481354       0.000001626109      -0.000000300951
15 2      -4.999684021481      -4.915097267875      -4.881960570659       0.570967827666      -0.000001008402      -0.000000183355
16 2      -4.915065290189      -4.881885847359      -4.999623913553       0.000002358017       0.570987191348       0.000004912515
17 2      -5.728070633999      -5.728071964119      -5.728077491444      -1.078134475862       1.078130796678       1.078134185312
18 2      -4.915062556826      -4.881896795513      -4.999621157469      -0.000002237267       0.570987242303      -0.000001950462
19 2      -4.999686278497      -4.915099001762      -4.881970681994       0.570968675879      -0.000001953882       0.000000062087
20 2      -4.999659072169      -4.915077444180      -4.881907190252      -0.570973580264       0.000001336134       0.000000180025
21 2      -4.881970681994      -4.999686278497      -4.915099001762      -0.000001953882       0.000000062087       0.570968675879
22 2      -4.881940036697      -4.999643250858      -4.915080440050       0.000002568109      -0.000002354830      -0.570980385408
23 2      -4.915077444180      -4.881907190252      -4.999659072169       0.000000180025      -0.570973580264       0.000001336134
24 2      -5.728077491444      -5.728070633999      -5.728071964119       1.078130796678       1.078134185312      -1.078134475862
25 2      -5.728069435820      -5.728069435820      -5.728069435820      -1.078133785525      -1.078133785525      -1.078133785525
26 2      -5.728071964119      -5.728077491444      -5.728070633999       1.078134185312      -1.078134475862       1.078130796678
27 2      -4.915080440050      -4.881940036697      -4.999643250858      -0.000002354830      -0.570980385408       0.000002568109
28 2      -4.881907190252      -4.999659072169      -4.915077444180       0.000001336134       0.000000180025      -0.570973580264
29 2      -4.881896795513      -4.999621157469      -4.915062556826      -0.000001950462      -0.000002237267       0.570987242303
30 2      -4.999643250858      -4.915080440050      -4.881940036697      -0.570980385408       0.000002568109      -0.000002354830
31 2      -4.999621157469      -4.915062556826      -4.881896795513       0.570987242303      -0.000001950462      -0.000002237267
32 2      -4.915099001762      -4.881970681994      -4.999686278497       0.000000062087       0.570968675879      -0.000001953882
33 1       3.468148420918       3.434219252338       2.970521151051      -0.399063217228       0.699887454362       0.235296372667
34 1       3.468151498929       3.434221709724       2.970515248319       0.399063032660      -0.699890583722       0.235297447563
35 1       3.434220541483       2.970518423619       3.468143499161      -0.235296248478      -0.399064293901      -0.699892683236
36 1       3.434220498800       2.970510894550       3.468140751172       0.235299387483      -0.399064805008       0.699891392888
37 1       3.434219573143       2.970512666786       3.468146960423      -0.235299609602       0.399062345155       0.699893786058
38 1       3.434221583370       2.970518221376       3.468139768164       0.235302680171       0.399060138465      -0.699886823967
39 1       3.468143499161       3.434220541483       2.970518423619      -0.399064293901      -0.699892683236      -0.235296248478
40 1       3.468146960423       3.434219573143       2.970512666786       0.399062345155       0.699893786058      -0.235299609602
41 1       2.970518221376       3.468139768164       3.434221583370      -0.699886823967       0.235302680171       0.399060138465
42 1       2.970521874794       3.468140099876       3.434225097442       0.699884780308      -0.235300240214       0.399062591748
43 1       2.970518423619       3.468143499161       3.434220541483      -0.699892683236      -0.235296248478      -0.399064293901
44 1       2.970521151051       3.468148420918       3.434219252338       0.699887454362       0.235296372667      -0.399063217228
45 1       2.970514694018       3.468141466344       3.434220587456      -0.699887321934      -0.235299233462      -0.399065494470
46 1       2.970512666786       3.468146960423       3.434219573143       0.699893786058      -0.235299609602       0.399062345155
47 1       2.970515248319       3.468151498929       3.434221709724      -0.699890583722       0.235297447563       0.399063032660
48 1       2.970510894550       3.468140751172       3.434220498800       0.699891392888       0.235299387483      -0.399064805008
49 1       3.468140099876       3.434225097442       2.970521874794       0.399062591748       0.699884780308      -0.235300240214
50 1       3.468141466344       3.434220587456       2.970514694018      -0.399065494470      -0.699887321934      -0.235299233462
51 1       3.434225097442       2.970521874794       3.468140099876      -0.235300240214       0.399062591748       0.699884780308
52 1       3.434221709724       2.970515248319       3.468151498929       0.235297447563       0.399063032660      -0.699890583722
53 1       3.434219252338       2.970521151051       3.468148420918       0.235296372668      -0.399063217228       0.699887454362
54 1       3.434220587456       2.970514694018       3.468141466344      -0.235299233462      -0.399065494470      -0.699887321934
55 1       3.468140751172       3.434220498800       2.970510894550      -0.399064805008       0.699891392888       0.235299387483
56 1       3.468139768164       3.434221583370       2.970518221376       0.399060138465      -0.699886823967       0.235302680171
57 1       3.468139914607       3.434219370619       2.970511684509      -0.399061427031       0.699890419892       0.235303330249
58 1       3.468135519202       3.434219036372       2.970518090479       0.399063654031      -0.699888557784       0.235300537272
59 1       3.434222797432       2.970513864247       3.468141231685      -0.235300784152      -0.399063892152      -0.699888688404
60 1       3.434221538504       2.970522042290       3.468143046172       0.235298213262      -0.399063660131       0.699889219901
61 1       3.434219037551       2.970520416111       3.468137219458      -0.235300277243       0.399064354939       0.699884799655
62 1       3.434218330774       2.970514211480       3.468145346016       0.235296638271       0.399066284347      -0.699892520334
63 1       3.468141231685       3.434222797432       2.970513864247      -0.399063892152      -0.699888688404      -0.235300784152
64 1       3.468137219458       3.434219037551       2.970520416111       0.399064354939       0.699884799655      -0.235300277243
65 1       2.970514211480       3.468145346016       3.434218330774      -0.699892520334       0.235296638271       0.399066284347
66 1       2.970510814013       3.468147850773       3.434216950182       0.699895119953      -0.235297176771       0.399063815433
67 1       2.970513864247       3.468141231685       3.434222797432      -0.699888688404      -0.235300784152      -0.399063892152
68 1       2.970511684509       3.468139914607       3.434219370619       0.699890419892       0.235303330249      -0.399061427031
69 1       2.970518790886       3.468145934474       3.434216732423      -0.699889792334      -0.235301037862      -0.399059427420
70 1       2.970520416111       3.468137219458       3.434219037551       0.699884799655      -0.235300277243       0.399064354939
71 1       2.970518090479       3.468135519202       3.434219036372      -0.699888557784       0.235300537272       0.399063654031
72 1       2.970522042290       3.468143046172       3.434221538504       0.699889219901       0.235298213262      -0.399063660131
73 1       3.468147850773       3.434216950182       2.970510814013       0.399063815433       0.699895119953      -0.235297176771
74 1       3.468145934474       3.434216732423       2.970518790886      -0.399059427420      -0.699889792334      -0.235301037862
75 1       3.434216950182       2.970510814013       3.468147850773      -0.235297176771       0.399063815433       0.699895119953
76 1       3.434219036372       2.970518090479       3.468135519202       0.235300537272       0.399063654031      -0.699888557784
77 1       3.434219370619       2.970511684509       3.468139914607       0.235303330249      -0.399061427031       0.699890419892
78 1       3.434216732423       2.970518790886       3.468145934474      -0.235301037862      -0.399059427420      -0.699889792334
79 1       3.468143046172       3.434221538504       2.970522042290      -0.399063660131       0.699889219901       0.235298213262
80 1       3.468145346016       3.434218330774       2.970514211480       0.399066284347      -0.699892520334       0.235296638271
