ITEM: TIMESTEP
0
ITEM: NUMBER OF ATOMS
40
ITEM: BOX BOUNDS pp pp pp
0.0000000000000000e+00 8.9077567690000006e+00
0.0000000000000000e+00 5.1872663960000001e+00
0.0000000000000000e+00 9.5315614849999992e+00
ITEM: ATOMS id type v_vir_xx v_vir_yy v_vir_zz v_vir_xy v_vir_xz v_vir_yz
1 2      -0.913768289723      -1.187672234632      -1.518355665881       0.618975069990       0.981626859566      -0.965830877761
2 2      -0.913671232400      -1.187665027299      -1.518349554555      -0.618935585987      -0.981688329485      -0.965773905064
3 2      -2.475527586573      -2.958314909618      -2.346719668946      -0.443691407259      -0.297532522585       0.687480758112
4 2      -2.475549045930      -2.958322746992      -2.346730429405       0.443664536994       0.297506147644       0.687441870134
5 2      -1.303651658866      -1.066003916220      -0.982514913535      -0.368020871403       0.659107484608      -0.116941213821
6 2      -1.531461678105      -1.812407774160      -3.294805244222       0.435615695503      -0.552481711600      -1.156468079607
7 2      -1.531442555667      -1.812417366663      -3.294885445815      -0.435680671108       0.552406465229      -1.156485135133
8 2      -1.303593773665      -1.066004410672      -0.982443008174       0.368055344926      -0.659117956382      -0.116979217307
9 2      -2.475938569139      -2.956683539577      -2.341415513030       0.442533089355      -0.297940205833      -0.688907912196
10 2      -2.475929515480      -2.956705757597      -2.341516334062      -0.442521394014       0.297928952084      -0.688951414600
11 2      -0.921499457121      -1.194623721637      -1.525419563973      -0.621840820436       0.983501082651       0.960807922377
12 2      -0.921467594663      -1.194621071727      -1.525406864568       0.621857508835      -0.983531068322       0.960820381871
13 2      -1.295974096522      -1.066404397237      -0.981854122499      -0.367190842572      -0.657618766487       0.115439182535
14 2      -1.525411188499      -1.816021466201      -3.299299914648      -0.434923044685      -0.554243537615       1.154122293440
15 2      -1.525409531138      -1.816034205233      -3.299291829721       0.434931447522       0.554235659396       1.154127677657
16 2      -1.295930068190      -1.066387836091      -0.981816848043       0.367201884890       0.657622707817       0.115448862881
17 1       0.902834335777       1.619981495782       1.177079099962       0.406959574846       0.950070502253      -0.825902008790
18 1       0.704582008303       1.104608289991       1.352578925935      -0.395877975894      -0.998112135984      -0.491584473009
19 1       1.738807105800       1.278948191207       1.383930810191      -0.453127374706      -0.572491771829      -0.869015559398
20 1       2.565727302099       2.716801511002       3.170679646624      -0.155261193873      -0.564517978203      -0.951080095172
21 1       0.902785638754       1.619995664832       1.177027391859      -0.406978378085      -0.950043772012      -0.825911065531
22 1       2.253118259204       2.066385966639       2.253882157033      -0.092451102190      -0.122272390432      -0.330428311000
23 1       1.738826681357       1.278935662376       1.383940490151       0.453068539771       0.572447735896      -0.869008696204
24 1       2.565724477354       2.716781783770       3.170676640295       0.155239400753       0.564516338702      -0.951095921941
25 1       2.257389512499       2.066411634766       2.254376776629      -0.092899338111       0.122150030568       0.331542522142
26 1       0.899541732413       1.612820238086       1.173744647001      -0.403763454561       0.951588790472       0.827273045886
27 1       2.560909342843       2.712925323667       3.167567770918      -0.153000473943       0.565222378228       0.953591245284
28 1       1.738319816219       1.275570187869       1.379876355405      -0.452184758561       0.572217480557       0.867226903716
29 1       0.706949279980       1.107747774742       1.352646415173      -0.399882292622       0.998058024209       0.491191925930
30 1       0.899600494132       1.612739578339       1.173756984350       0.403740377327      -0.951635084845       0.827245430733
31 1       1.790257575218       2.623968736627       2.470712893195      -0.048336288162       0.157209922591      -0.050493729093
32 1       1.793504822999       2.625673707924       2.470117096145      -0.049898898059      -0.156066135356       0.051168980271
33 1       0.706906368763       1.107718928527       1.352629553177       0.399900413761      -0.998060648510       0.491191080822
34 1       2.253171940874       2.066406274582       2.253906074557       0.092451531285       0.122275394320      -0.330411468496
35 1       1.790235104337       2.624004582061       2.470736318669       0.048333895360      -0.157175649731      -0.050490309330
36 1       1.793472804873       2.625690565749       2.470113923659       0.049886672878       0.156072853263       0.051170053954
37 1       2.257376263563       2.066353396408       2.254312513615       0.092861662001      -0.122135671561       0.331538926799
38 1       0.704576324078       1.104626422618       1.352599618000       0.395864894353       0.998119996996      -0.491603717018
39 1       2.560913312911       2.712973711786       3.167577401564       0.152964049245      -0.565197460904       0.953584871567
40 1       1.738360390146       1.275512695916       1.379872387161       0.452179191662      -0.572186421620       0.867212456165
