ITEM: TIMESTEP
0
ITEM: NUMBER OF ATOMS
20
ITEM: BOX BOUNDS xy xz yz pp pp pp
-1.4125066631990000e+00 1.2659814267052999e+01 0.0000000000000000e+00
0.0000000000000000e+00 3.1350924679999999e+00 -1.4125066631990000e+00
0.0000000000000000e+00 5.8040492080880002e+00 0.0000000000000000e+00
ITEM: ATOMS id type v_vir_xx v_vir_yy v_vir_zz v_vir_xy v_vir_xz v_vir_yz
1 2      -0.336076510524       0.140464372440      -2.396532901109       0.000003734250       0.731110779956       0.000005088357
2 2      -0.336074752862       0.140483876390      -2.396513836140       0.000003732843       0.731102944287       0.000005088208
3 2      -1.995057181247      -2.182925452045       0.023099646142      -0.000020803383       0.089683627027      -0.000008356854
4 2      -1.995070661895      -2.182985959413       0.023150999270      -0.000020805227       0.089651078471      -0.000008358200
5 2      -0.336073457804       0.140462322938      -2.396524271832      -0.000003737045       0.731089070722      -0.000005088886
6 2      -0.336093836095       0.140463611179      -2.396529496568      -0.000003738560       0.731081745829      -0.000005088878
7 2      -1.995002555705      -2.182911370630       0.023124606256       0.000020802101       0.089683065763       0.000008354581
8 2      -1.995012515357      -2.182898184920       0.023149547307       0.000020801904       0.089683392747       0.000008354723
9 1       1.848150451004       0.890301393502      -0.060168406865      -0.000033225229       0.466827393471      -0.000010070647
10 1       1.848167227256       0.890331892333      -0.060191678766      -0.000033225018       0.466840847068      -0.000010070382
11 1       1.836061870634       1.586753635273       3.057543372153      -0.000010477024      -0.406098516071       0.000000832526
12 1       1.836085742065       1.586744999298       3.057543902604      -0.000010474588      -0.406113936696       0.000000833279
13 1       0.985293871859       2.035926953500       1.894525646778      -0.000005286809      -0.735425517489       0.000009057535
14 1       0.985291517487       2.035920631077       1.894481734811      -0.000005288212      -0.735442935186       0.000009057243
15 1       1.848186419465       0.890331973383      -0.060185592000       0.000033223161       0.466832510180       0.000010070711
16 1       1.848209175915       0.890352471845      -0.060172568289       0.000033223500       0.466836599388       0.000010070498
17 1       1.836133515082       1.586755956744       3.057567100057       0.000010471140      -0.406118854262      -0.000000833076
18 1       1.836126572297       1.586742115112       3.057550538083       0.000010472556      -0.406129126933      -0.000000833189
19 1       0.985307106146       2.035918339121       1.894516100857       0.000005286534      -0.735450126386      -0.000009059376
20 1       0.985306038826       2.035930550400       1.894519088936       0.000005285919      -0.735458197266      -0.000009059511
