ITEM: TIMESTEP
0
ITEM: NUMBER OF ATOMS
20
ITEM: BOX BOUNDS xy xz yz pp pp pp
-1.4125066631990000e+00 1.2659814267052999e+01 0.0000000000000000e+00
0.0000000000000000e+00 3.1350924679999999e+00 -1.4125066631990000e+00
0.0000000000000000e+00 5.8040492080880002e+00 0.0000000000000000e+00
ITEM: ATOMS id type x y z fx fy fz
1 2       1.552105630035       1.567550000000       1.827854482532       0.032744263731      -0.000026584952       0.011815200445
2 2       3.365292274323       0.000000000000       3.976194083590      -0.032710238454       0.000026584010      -0.011819033870
3 2       0.007223434150       0.000000000000       4.616819869488      -0.013908406248       0.000056031354      -0.029985926652
4 2       4.910184186611       1.567550000000       1.187231061274       0.013774829940      -0.000056030221       0.029949724720
5 2       7.882009061857       0.000000000000       1.827858507355       0.032770251114       0.000026585824       0.011822963214
6 2       9.695207787187       1.567550000000       3.976190756650      -0.032761275752      -0.000026586556      -0.011822718318
7 2       6.337126865971       1.567550000000       4.616823894311      -0.013855627291      -0.000056032326      -0.029971157873
8 2      11.240089983072       0.000000000000       1.187225369695       0.013847174059       0.000056032180       0.029971327391
9 1       5.900876327894       0.000000000000       1.495496351081      -0.006498932195       0.000067554522      -0.025447019146
10 1      -0.983478423536       1.567550000000       4.308552215042       0.006594403203      -0.000067554448       0.025471764960
11 1       1.409374534367       0.000000000000       3.294476743760      -0.033523552370       0.000014259414       0.021812653283
12 1       3.508023369991       1.567550000000       2.509571822362       0.033557119111      -0.000014259411      -0.021830631907
13 1       3.056962391157       1.567550000000       5.162107370828       0.000413919962      -0.000029487575       0.029343845287
14 1       1.860435513202       0.000000000000       0.641941195295      -0.000407976201       0.000029487384      -0.029306520082
15 1      12.230791840758       1.567550000000       1.495493024141      -0.006649626147      -0.000067553761      -0.025486024492
16 1       5.346425008286       0.000000000000       4.308556239865       0.006633776372       0.000067553418       0.025484249487
17 1       7.739287682591       1.567550000000       3.294483133223      -0.033636821713      -0.000014256078       0.021785284939
18 1       9.837929166452       0.000000000000       2.509566130783       0.033622061049       0.000014256802      -0.021795583733
19 1       9.386868187617       0.000000000000       5.162101679248       0.000468741106       0.000029487130       0.029384810230
20 1       8.190348661426       1.567550000000       0.641947584757      -0.000474083277      -0.000029486710      -0.029377207882
