ITEM: TIMESTEP
0
ITEM: NUMBER OF ATOMS
30
ITEM: BOX BOUNDS xy xz yz pp pp pp
-2.4964117920000000e+00 4.9928235839999999e+00 -2.4964117920000000e+00
0.0000000000000000e+00 4.3239124720000000e+00 0.0000000000000000e+00
0.0000000000000000e+00 1.3441038518999999e+01 0.0000000000000000e+00
ITEM: ATOMS id type c_pe_atom
1 2      -4.429760486936
2 2      -4.429746598835
3 2      -4.429773569400
4 2      -4.429774177408
5 2      -4.429745731869
6 2      -4.429761205613
7 2      -4.429746390910
8 2      -4.429761390818
9 2      -4.429774884098
10 2      -4.429774004964
11 2      -4.429761515694
12 2      -4.429746565446
13 1     -11.194534924062
14 1     -11.194539647600
15 1     -11.194531782130
16 1     -11.194539360380
17 1     -11.194533820872
18 1     -11.194537918154
19 1     -11.194535309564
20 1     -11.194534621489
21 1     -11.194543001800
22 1     -11.194537216138
23 1     -11.194536352853
24 1     -11.194535764713
25 1     -11.194538090450
26 1     -11.194534339749
27 1     -11.194533517742
28 1     -11.194532080263
29 1     -11.194534759926
30 1     -11.194535214648
