ITEM: TIMESTEP
0
ITEM: NUMBER OF ATOMS
30
ITEM: BOX BOUNDS xy xz yz pp pp pp
-2.5318578010000001e+00 5.0637156020000003e+00 -2.5318578010000001e+00
0.0000000000000000e+00 4.3853067670000003e+00 0.0000000000000000e+00
0.0000000000000000e+00 1.3631884907000000e+01 0.0000000000000000e+00
ITEM: ATOMS id type x y z fx fy fz
1 2       0.000000000000       0.000000000000       1.964200000000       0.000025062694      -0.000025798212      -0.096054602875
2 2      -0.000000000000       2.923540000000       0.307790000000       0.000006369711      -0.000046220141       0.095965461878
3 2       2.531860000000       1.461770000000       2.579760000000      -0.000012108295      -0.000015713857       0.096006181231
4 2      -0.000000000000       2.923540000000       4.236190000000       0.000044411970      -0.000038190056      -0.096062368687
5 2       2.531860000000       1.461770000000       6.508160000000      -0.000046796164      -0.000036119162      -0.096002567385
6 2       0.000000000000       0.000000000000       4.851740000000      -0.000019039941       0.000025200111       0.096061534772
7 2      -0.000000000000       2.923540000000       7.123730000000       0.000058656228      -0.000045700251       0.095989730960
8 2       0.000000000000       0.000000000000       8.780140000000       0.000049041293      -0.000025998175      -0.096050279773
9 2      -0.000000000000       2.923540000000      11.052130000000       0.000001173209      -0.000032824786      -0.096042676303
10 2       2.531860000000       1.461770000000       9.395700000000      -0.000043824576      -0.000013984444       0.096032087046
11 2       0.000000000000       0.000000000000      11.667680000000       0.000035961504       0.000024250323       0.096069900303
12 2       2.531860000000       1.461770000000      13.324100000000      -0.000025793533      -0.000035879553      -0.095979257298
13 1      -0.767260000000       1.328940000000       3.407970000000      -0.054747772860       0.094849180669       0.000061007374
14 1       1.534530000000       0.000000000000       3.407970000000       0.109493419354      -0.000003015267       0.000029652857
15 1       1.764600000000       3.056370000000       3.407970000000      -0.054846212909      -0.094838178063       0.000062879557
16 1       3.299120000000       0.132830000000       1.135990000000       0.054780684247      -0.094806595199       0.000038829098
17 1       3.299120000000       2.790700000000       1.135990000000       0.054724725211       0.094945865838       0.000052119556
18 1       0.997330000000       1.461770000000       1.135990000000      -0.109464612740      -0.000055535646       0.000027883326
19 1       1.764600000000       2.790700000000       7.951930000000      -0.054761136890       0.094942646684       0.000059102612
20 1       4.066390000000       1.461770000000       7.951930000000       0.109440370516      -0.000060153490       0.000046672662
21 1       1.764600000000       0.132830000000       7.951930000000      -0.054824495857      -0.094797553027       0.000084956954
22 1       0.767260000000       1.594600000000       5.679960000000       0.054738863377      -0.094885800701      -0.000104023460
23 1       0.767260000000       4.252470000000       5.679960000000       0.054846781438       0.094903659351      -0.000096207974
24 1      -1.534530000000       2.923540000000       5.679960000000      -0.109463331063       0.000029844672      -0.000098285969
25 1      -0.767260000000       4.252470000000      12.495900000000      -0.054823076282       0.094912937230      -0.000066527845
26 1       1.534530000000       2.923540000000      12.495900000000       0.109474132606       0.000015422540      -0.000070858033
27 1      -0.767260000000       1.594600000000      12.495900000000      -0.054713290555      -0.094881951794      -0.000088760782
28 1      -1.764595602000       3.056370000000      10.223910000000       0.054803183925      -0.094838975477       0.000048081043
29 1       0.767260000000       1.328940000000      10.223910000000       0.054798437032       0.094852520320       0.000045233726
30 1       3.529190000000       0.000000000000      10.223910000000      -0.109529782652      -0.000017340437       0.000035101431
