ITEM: TIMESTEP
0
ITEM: NUMBER OF ATOMS
40
ITEM: BOX BOUNDS pp pp pp
0.0000000000000000e+00 8.8549439820000000e+00
0.0000000000000000e+00 5.1565118529999996e+00
0.0000000000000000e+00 9.4750502510000008e+00
ITEM: ATOMS id type c_pe_atom
1 2      -7.525001046295
2 2      -7.525011605315
3 2      -8.874782781417
4 2      -8.874786014924
5 2      -6.461152368342
6 2      -4.893290890447
7 2      -4.893306300155
8 2      -6.461214321870
9 2      -8.875750546556
10 2      -8.875696672062
11 2      -7.528734730565
12 2      -7.528644262855
13 2      -6.456465140065
14 2      -4.896048150780
15 2      -4.896147448734
16 2      -6.456416449596
17 1      -3.076027088918
18 1      -2.198865370144
19 1      -3.352015185037
20 1      -9.620522765320
21 1      -3.076031685213
22 1      -6.949851442171
23 1      -3.352196948301
24 1      -9.620571276318
25 1      -6.954722921211
26 1      -3.072322112406
27 1      -9.619754028495
28 1      -3.349630558482
29 1      -2.198571359894
30 1      -3.072376988342
31 1      -6.466050658000
32 1      -6.465429356077
33 1      -2.198614248651
34 1      -6.949829915542
35 1      -6.466056716168
36 1      -6.465371548098
37 1      -6.954787797284
38 1      -2.199008972389
39 1      -9.619810892392
40 1      -3.349634223230
