ITEM: TIMESTEP
0
ITEM: NUMBER OF ATOMS
30
ITEM: BOX BOUNDS xy xz yz pp pp pp
-2.5419852320000000e+00 5.0839704650000002e+00 -2.5419852320000000e+00
0.0000000000000000e+00 4.4028479940000000e+00 0.0000000000000000e+00
0.0000000000000000e+00 1.3686412447000000e+01 0.0000000000000000e+00
ITEM: ATOMS id type c_pe_atom
1 2      -4.744536457112
2 2      -4.744534745500
3 2      -4.744546203485
4 2      -4.744539399892
5 2      -4.744528802295
6 2      -4.744535751944
7 2      -4.744533896033
8 2      -4.744532578206
9 2      -4.744542132664
10 2      -4.744540548260
11 2      -4.744536800992
12 2      -4.744530138913
13 1     -11.007656804957
14 1     -11.007643702704
15 1     -11.007651193924
16 1     -11.007652567988
17 1     -11.007661683130
18 1     -11.007651372396
19 1     -11.007650751942
20 1     -11.007656014748
21 1     -11.007640990914
22 1     -11.007658551964
23 1     -11.007657143965
24 1     -11.007661986829
25 1     -11.007647160025
26 1     -11.007653931943
27 1     -11.007658854039
28 1     -11.007656952840
29 1     -11.007650516525
30 1     -11.007652402030
