ITEM: TIMESTEP
0
ITEM: NUMBER OF ATOMS
30
ITEM: BOX BOUNDS xy xz yz pp pp pp
-2.5673038099999999e+00 5.1346076209999998e+00 -2.5673038099999999e+00
0.0000000000000000e+00 4.4467010619999998e+00 0.0000000000000000e+00
0.0000000000000000e+00 1.3822731296000001e+01 0.0000000000000000e+00
ITEM: ATOMS id type c_pe_atom
1 2      -5.779270910835
2 2      -5.779150879582
3 2      -5.779247131382
4 2      -5.779350112998
5 2      -5.779108779611
6 2      -5.779353912688
7 2      -5.779160596721
8 2      -5.779240947030
9 2      -5.779248646456
10 2      -5.779225779335
11 2      -5.779249156336
12 2      -5.779137403002
13 1      -6.029941096025
14 1      -6.029868622617
15 1      -6.029894596165
16 1      -6.029992358317
17 1      -6.029990764031
18 1      -6.030055060623
19 1      -6.030032196240
20 1      -6.030064169386
21 1      -6.029988962878
22 1      -6.029912627033
23 1      -6.029930767511
24 1      -6.029978350949
25 1      -6.029989619634
26 1      -6.030002349774
27 1      -6.030046860543
28 1      -6.030002793398
29 1      -6.029959683803
30 1      -6.029982774320
