ITEM: TIMESTEP
0
ITEM: NUMBER OF ATOMS
20
ITEM: BOX BOUNDS xy xz yz pp pp pp
-1.4069456134080001e+00 1.2609972478089000e+01 0.0000000000000000e+00
0.0000000000000000e+00 3.1227495840000001e+00 -1.4069456134080001e+00
0.0000000000000000e+00 5.7811986212499997e+00 0.0000000000000000e+00
ITEM: ATOMS id type c_pe_atom
1 2      -6.792373499529
2 2      -6.792327930749
3 2      -9.837161611363
4 2      -9.837115545463
5 2      -6.792394573762
6 2      -6.792373903865
7 2      -9.837122881079
8 2      -9.837139297631
9 1      -3.349143410002
10 1      -3.349157738285
11 1      -6.550538631810
12 1      -6.550617477961
13 1      -3.286238648287
14 1      -3.286169189447
15 1      -3.349165091442
16 1      -3.349238389732
17 1      -6.550543792711
18 1      -6.550594694662
19 1      -3.286220320168
20 1      -3.286138886209
