ITEM: TIMESTEP
0
ITEM: NUMBER OF ATOMS
30
ITEM: BOX BOUNDS xy xz yz pp pp pp
-2.5014755069999999e+00 5.0029510149999998e+00 -2.5014755069999999e+00
0.0000000000000000e+00 4.3326830860000003e+00 0.0000000000000000e+00
0.0000000000000000e+00 1.3468302289000000e+01 0.0000000000000000e+00
ITEM: ATOMS id type x y z fx fy fz
1 2       0.000000000000       0.000000000000       1.941310000000       0.000035079479       0.000047447237      -0.012620646813
2 2      -0.000000000000       2.888460000000       0.303410000000       0.000033885455      -0.000051409769       0.012520649293
3 2       2.501480000000       1.444230000000       2.548120000000      -0.000060421465      -0.000027236825       0.012581142598
4 2      -0.000000000000       2.888460000000       4.186030000000       0.000011626950      -0.000082072904      -0.012537679905
5 2       2.501480000000       1.444230000000       6.430740000000      -0.000113044216       0.000021802073      -0.012537199690
6 2       0.000000000000       0.000000000000       4.792840000000      -0.000011334550       0.000074309819       0.012628376396
7 2      -0.000000000000       2.888460000000       7.037560000000       0.000017486459      -0.000058698678       0.012575091979
8 2       0.000000000000       0.000000000000       8.675460000000       0.000053070640       0.000039772793      -0.012591153921
9 2      -0.000000000000       2.888460000000      10.920180000000       0.000034188273      -0.000062912251      -0.012549709039
10 2       2.501480000000       1.444230000000       9.282270000000      -0.000082980666      -0.000043414613       0.012635666800
11 2       0.000000000000       0.000000000000      11.526990000000       0.000000719185       0.000078711704       0.012664680585
12 2       2.501480000000       1.444230000000      13.164890000000      -0.000123583873       0.000035345238      -0.012542910054
13 1      -0.757960000000       1.312830000000       3.367080000000       0.012147201217      -0.021103873067      -0.000053272003
14 1       1.515930000000       0.000000000000       3.367080000000      -0.024430969613       0.000061372976      -0.000085207623
15 1       1.743510000000       3.019850000000       3.367080000000       0.012275881822       0.021153720759      -0.000073238931
16 1       3.259440000000       0.131400000000       1.122350000000      -0.012147955095       0.021176762581       0.000183357361
17 1       3.259440000000       2.757060000000       1.122350000000      -0.012293799483      -0.021089785328       0.000191146068
18 1       0.985550000000       1.444230000000       1.122350000000       0.024410142971      -0.000082336659       0.000172154044
19 1       1.743510000000       2.757060000000       7.856510000000       0.012265280813      -0.021135313330       0.000065415105
20 1       4.017400000000       1.444230000000       7.856510000000      -0.024371638826      -0.000004567604       0.000034027888
21 1       1.743520000000       0.131400000000       7.856510000000       0.012064704127       0.021152962894       0.000101702279
22 1       0.757960000000       1.575630000000       5.611800000000      -0.012212892781       0.021072140371      -0.000069457472
23 1       0.757960000000       4.201290000000       5.611800000000      -0.012109166415      -0.021193282411      -0.000121383036
24 1      -1.515930000000       2.888460000000       5.611800000000       0.024459443957       0.000024905339      -0.000076473642
25 1      -0.757960000000       4.201290000000      12.345950000000       0.012093495549      -0.021188101129      -0.000138711509
26 1       1.515920000000       2.888460000000      12.345950000000      -0.024341133365       0.000000834618      -0.000084494514
27 1      -0.757970000000       1.575630000000      12.345950000000       0.012392308393       0.021077144927      -0.000171201057
28 1      -1.743510000000       3.019850000000      10.101230000000      -0.012234165450       0.021185173497      -0.000022254380
29 1       0.757960000000       1.312830000000      10.101230000000      -0.012106892688      -0.021112600321      -0.000041637349
30 1       3.487030000000       0.000000000000      10.101230000000       0.024345463196       0.000033198062      -0.000036779457
