ITEM: TIMESTEP
0
ITEM: NUMBER OF ATOMS
30
ITEM: BOX BOUNDS xy xz yz pp pp pp
-2.5014755069999999e+00 5.0029510149999998e+00 -2.5014755069999999e+00
0.0000000000000000e+00 4.3326830860000003e+00 0.0000000000000000e+00
0.0000000000000000e+00 1.3468302289000000e+01 0.0000000000000000e+00
ITEM: ATOMS id type v_vir_xx v_vir_yy v_vir_zz v_vir_xy v_vir_xz v_vir_yz
1 2      -4.835386488531      -4.835373238134      -4.130903256795       0.000051679472       0.000000882366      -0.000016151838
2 2      -4.835527444468      -4.835484112893      -4.131212347111      -0.000014556393       0.000029047927      -0.000022400159
3 2      -4.835327352375      -4.835402713324      -4.130906162035       0.000025517391      -0.000005520302      -0.000001345624
4 2      -4.835412568395      -4.835386920856      -4.130994606373       0.000005004046      -0.000005520316       0.000024970416
5 2      -4.835457427567      -4.835540695716      -4.131144782903      -0.000022428569       0.000030341718      -0.000010344136
6 2      -4.835397373809      -4.835385549806      -4.130997315225       0.000056281837      -0.000006482474       0.000027345833
7 2      -4.835512942113      -4.835494226948      -4.131174339671      -0.000022861992       0.000002837481      -0.000025302123
8 2      -4.835449235840      -4.835438470790      -4.131013003360      -0.000002825526      -0.000024133160      -0.000016442199
9 2      -4.835527772963      -4.835419966859      -4.131058619138      -0.000018540585      -0.000019792961       0.000020684040
10 2      -4.835407044017      -4.835464832531      -4.131050920681      -0.000032639152      -0.000032946480      -0.000013763709
11 2      -4.835486041436      -4.835405341778      -4.131055533736      -0.000003087322       0.000002583740       0.000012647747
12 2      -4.835535569968      -4.835507511443      -4.131223566207      -0.000021512345       0.000028730102      -0.000019532849
13 1       1.906363976964       2.737485593602       1.999882840463      -0.719792854584       0.401474786431       0.231796510826
14 1       3.153022160902       1.490792521338       1.999876665109       0.000043802131      -0.000022539053      -0.463573978536
15 1       1.906322314710       2.737476912994       1.999875672256       0.719736565932      -0.401466897193       0.231788394167
16 1       1.906374095558       2.737424518886       1.999880540683      -0.719800181003       0.401473778229       0.231773328797
17 1       1.906272609878       2.737479517285       1.999877962715       0.719746227357      -0.401452733848       0.231791977101
18 1       3.153039001389       1.490807579831       1.999873283472       0.000040127499      -0.000019110600      -0.463587490803
19 1       1.906352662410       2.737467446648       1.999884152660      -0.719756669472       0.401462748642       0.231790339632
20 1       3.153042026795       1.490811745052       1.999892893386      -0.000018369164       0.000009961180      -0.463587624726
21 1       1.906396316658       2.737449989248       1.999889294332       0.719815222420      -0.401474469445       0.231771579013
22 1       1.906334739539       2.737513932088       1.999873775360      -0.719752433431       0.401489541131       0.231803601892
23 1       1.906374723472       2.737417817893       1.999879229695       0.719794802672      -0.401482526440       0.231758206600
24 1       3.152985853917       1.490754540177       1.999875209585      -0.000024834569       0.000009246568      -0.463545676317
25 1       1.906387584347       2.737408321939       1.999890013280      -0.719796488491       0.401471570597       0.231773245680
26 1       3.153048224583       1.490779471121       1.999893489544       0.000025311454       0.000001220195      -0.463586882853
27 1       1.906268184673       2.737527278866       1.999881817603       0.719721033686      -0.401444406952       0.231825765717
28 1       1.906336574584       2.737463446410       1.999899665124      -0.719749927894       0.401448187810       0.231789526437
29 1       1.906434162149       2.737493027082       1.999907048473       0.719787790564      -0.401493478827       0.231801121685
30 1       3.153083010424       1.490797429843       1.999900875799      -0.000019106520       0.000015192730      -0.463584703920
