30
Config_type=bulk_alpha_phase Weight=1.0 Lattice="5.002951015 0.000000000 0.000000000 -2.501475507 4.332683086 0.000000000 0.000000000 0.000000000 13.468302289" Energy=-254.86168960 Virial="14.94093 -0.00001 -0.00000 -0.00001 14.94088 -0.00001 -0.00000 -0.00001 13.31162" pbc="T T T" Properties=species:S:1:pos:R:3:forces:R:3
Ga	      0.00000      0.00000      1.94131         0.000036      0.000040     -0.019341
Ga	      0.00000      2.88846      0.30341         0.000029     -0.000046      0.019144
Ga	      2.50148      1.44423      2.54812        -0.000067     -0.000036      0.019203
Ga	      0.00000      2.88846      4.18603         0.000002     -0.000085     -0.019196
Ga	      2.50148      1.44423      6.43074        -0.000118      0.000023     -0.019160
Ga	      0.00000      0.00000      4.79284        -0.000013      0.000075      0.019304
Ga	      0.00000      2.88846      7.03756         0.000013     -0.000062      0.019257
Ga	      0.00000      0.00000      8.67546         0.000056      0.000032     -0.019230
Ga	      0.00000      2.88846     10.92018         0.000033     -0.000067     -0.019211
Ga	      2.50148      1.44423      9.28227        -0.000094     -0.000045      0.019350
Ga	      0.00000      0.00000     11.52699         0.000003      0.000074      0.019348
Ga	      2.50148      1.44423     13.16489        -0.000130      0.000026     -0.019233
O	     -0.75796      1.31283      3.36708        -0.008632      0.015037     -0.000035
O	      1.51593      0.00000      3.36708         0.017256     -0.000006     -0.000061
O	      1.74351      3.01985      3.36708        -0.008624     -0.014917     -0.000057
O	      3.25944      0.13140      1.12235         0.008757     -0.014933      0.000230
O	      3.25944      2.75706      1.12235         0.008532      0.015066      0.000238
O	      0.98555      1.44423      1.12235        -0.017301     -0.000129      0.000220
O	      1.74351      2.75706      7.85651        -0.008551      0.014951      0.000025
O	      4.01740      1.44423      7.85651         0.017292      0.000007     -0.000004
O	      1.74352      0.13140      7.85651        -0.008767     -0.014931      0.000058
O	      0.75796      1.57563      5.61180         0.008686     -0.015010     -0.000085
O	      0.75796      4.20129      5.61180         0.008698      0.014949     -0.000135
O	     -1.51593      2.88846      5.61180        -0.017241     -0.000023     -0.000091
O	     -0.75796      4.20129     12.34595        -0.008738      0.014920     -0.000147
O	      1.51592      2.88846     12.34595         0.017337     -0.000007     -0.000101
O	     -0.75797      1.57563     12.34595        -0.008458     -0.015006     -0.000167
O	     -1.74351      3.01985     10.10123         0.008648     -0.014954     -0.000034
O	      0.75796      1.31283     10.10123         0.008754      0.015038     -0.000046
O	      3.48703      0.00000     10.10123        -0.017399      0.000019     -0.000044
