ITEM: TIMESTEP
0
ITEM: NUMBER OF ATOMS
20
ITEM: BOX BOUNDS xy xz yz pp pp pp
-1.4125066631990000e+00 1.2659814267052999e+01 0.0000000000000000e+00
0.0000000000000000e+00 3.1350924679999999e+00 -1.4125066631990000e+00
0.0000000000000000e+00 5.8040492080880002e+00 0.0000000000000000e+00
ITEM: ATOMS id type c_pe_atom
1 2      -7.085771778068
2 2      -7.085784585541
3 2     -10.071839931896
4 2     -10.071852597073
5 2      -7.085780691055
6 2      -7.085767125955
7 2     -10.071872280256
8 2     -10.071857333907
9 1      -3.179612839687
10 1      -3.179690611008
11 1      -6.320129953373
12 1      -6.320149418641
13 1      -3.132620798150
14 1      -3.132591138792
15 1      -3.179654612035
16 1      -3.179676481304
17 1      -6.320127344085
18 1      -6.320148171931
19 1      -3.132615388111
20 1      -3.132595740387
