ITEM: TIMESTEP
0
ITEM: NUMBER OF ATOMS
80
ITEM: BOX BOUNDS pp pp pp
0.0000000000000000e+00 9.4109445550000004e+00
0.0000000000000000e+00 9.4109445550000004e+00
0.0000000000000000e+00 9.4109445550000004e+00
ITEM: ATOMS id type c_pe_atom
1 2      -5.277130066978
2 2      -5.157793626012
3 2      -5.157793879187
4 2      -5.157789817075
5 2      -5.157793879187
6 2      -5.157790495161
7 2      -5.157789817075
8 2      -5.277130066978
9 2      -5.277125910262
10 2      -5.277130066978
11 2      -5.157790495161
12 2      -5.157789817075
13 2      -5.157793626012
14 2      -5.157790495161
15 2      -5.157793626012
16 2      -5.157793879187
17 2      -5.277134223918
18 2      -5.157793973730
19 2      -5.157791724860
20 2      -5.157797782633
21 2      -5.157791724860
22 2      -5.157795109029
23 2      -5.157797782633
24 2      -5.277134223918
25 2      -5.277138380568
26 2      -5.277134223918
27 2      -5.157795109029
28 2      -5.157797782633
29 2      -5.157793973730
30 2      -5.157795109029
31 2      -5.157793973730
32 2      -5.157791724860
33 1     -10.704487084773
34 1     -10.704498931454
35 1     -10.704484560183
36 1     -10.704497339114
37 1     -10.704480816983
38 1     -10.704490697985
39 1     -10.704484560183
40 1     -10.704480816983
41 1     -10.704490697985
42 1     -10.704503649518
43 1     -10.704484560183
44 1     -10.704487084773
45 1     -10.704494701291
46 1     -10.704480816983
47 1     -10.704498931454
48 1     -10.704497339114
49 1     -10.704503649518
50 1     -10.704494701291
51 1     -10.704503649518
52 1     -10.704498931454
53 1     -10.704487084773
54 1     -10.704494701291
55 1     -10.704497339114
56 1     -10.704490697985
57 1     -10.704490485944
58 1     -10.704494927659
59 1     -10.704502103712
60 1     -10.704490023548
61 1     -10.704490955967
62 1     -10.704480376515
63 1     -10.704502103712
64 1     -10.704490955967
65 1     -10.704480376515
66 1     -10.704489510894
67 1     -10.704502103712
68 1     -10.704490485944
69 1     -10.704483568202
70 1     -10.704490955967
71 1     -10.704494927659
72 1     -10.704490023548
73 1     -10.704489510894
74 1     -10.704483568202
75 1     -10.704489510894
76 1     -10.704494927659
77 1     -10.704490485944
78 1     -10.704483568202
79 1     -10.704490023548
80 1     -10.704480376515
