ITEM: TIMESTEP
0
ITEM: NUMBER OF ATOMS
30
ITEM: BOX BOUNDS xy xz yz pp pp pp
-2.5116029284999999e+00 5.0232058769999997e+00 -2.5116029284999999e+00
0.0000000000000000e+00 4.3502243130000000e+00 0.0000000000000000e+00
0.0000000000000000e+00 1.3522829828000001e+01 0.0000000000000000e+00
ITEM: ATOMS id type v_vir_xx v_vir_yy v_vir_zz v_vir_xy v_vir_xz v_vir_yz
1 2      -4.359351586370      -4.359242817728      -3.548796114435      -0.000034182577      -0.000008730254       0.000021915074
2 2      -4.359339908662      -4.359342221369      -3.548943532918       0.000013374428       0.000007572973      -0.000018755317
3 2      -4.359213039374      -4.359202401496      -3.548806722805      -0.000005031370       0.000000680289       0.000026142476
4 2      -4.359293119634      -4.359292959376      -3.548849347969       0.000016762864      -0.000007085774       0.000003183224
5 2      -4.359308591160      -4.359359600612      -3.549051107872       0.000023694329      -0.000005549592      -0.000036390132
6 2      -4.359310904202      -4.359213454827      -3.548822112623      -0.000012924168      -0.000002333733      -0.000008130752
7 2      -4.359313344996      -4.359357586565      -3.549034422967       0.000028233490      -0.000004764429      -0.000020240884
8 2      -4.359264883869      -4.359224037264      -3.548821294310      -0.000006225494       0.000004663820       0.000019896215
9 2      -4.359256706077      -4.359291747556      -3.548821442889       0.000002695116       0.000013244238       0.000003265600
10 2      -4.359203116417      -4.359202324554      -3.548822839725      -0.000003902400       0.000004915832       0.000028855761
11 2      -4.359296751481      -4.359213191050      -3.548788402997      -0.000014984101       0.000000282566       0.000000465930
12 2      -4.359304319860      -4.359368571882      -3.548954694530      -0.000007048175      -0.000002817873      -0.000029965406
13 1       1.894275454716       2.736975178945       1.879386203224      -0.729871849254       0.465699499181       0.268849628824
14 1       3.158419497630       1.472827951201       1.879409560686       0.000017291690      -0.000011357131      -0.537724907074
15 1       1.894233501882       2.737044287434       1.879412800557       0.729839494683      -0.465682372698       0.268890899765
16 1       1.894217912264       2.736998684976       1.879396446096      -0.729889601809       0.465660267911       0.268857726735
17 1       1.894218503554       2.737035000662       1.879379995237       0.729873257740      -0.465659824191       0.268871792253
18 1       3.158380700130       1.472831830755       1.879394520854      -0.000018492072       0.000005737731      -0.537721120284
19 1       1.894152811046       2.737018174531       1.879385409099      -0.729852939292       0.465676114897       0.268875058892
20 1       3.158354044707       1.472807522998       1.879374895316      -0.000001066172       0.000002827963      -0.537720907821
21 1       1.894196441189       2.736947301614       1.879399139069       0.729891371238      -0.465687805317       0.268849937459
22 1       1.894190846757       2.737048215620       1.879397990146      -0.729856332775       0.465685402267       0.268891293968
23 1       1.894250135445       2.736918511895       1.879392856512       0.729879309276      -0.465685291976       0.268828550763
24 1       3.158412568467       1.472852344159       1.879397346862      -0.000030327265       0.000005459265      -0.537744771082
25 1       1.894280098929       2.736962384520       1.879394503258      -0.729879420233       0.465676877350       0.268822855998
26 1       3.158427660467       1.472874458451       1.879398456562       0.000015014086      -0.000003550222      -0.537728072251
27 1       1.894254716766       2.737058542121       1.879391048126       0.729866667203      -0.465690365408       0.268879508554
28 1       1.894219246654       2.737022621251       1.879405072734      -0.729848077126       0.465690706803       0.268879324520
29 1       1.894211474057       2.736993176668       1.879389830137       0.729864688062      -0.465679768855       0.268861013958
30 1       3.158384927954       1.472814217799       1.879395267111       0.000001178529      -0.000002549822      -0.537718898652
