ITEM: TIMESTEP
0
ITEM: NUMBER OF ATOMS
30
ITEM: BOX BOUNDS xy xz yz pp pp pp
-2.5116029284999999e+00 5.0232058769999997e+00 -2.5116029284999999e+00
0.0000000000000000e+00 4.3502243130000000e+00 0.0000000000000000e+00
0.0000000000000000e+00 1.3522829828000001e+01 0.0000000000000000e+00
ITEM: ATOMS id type c_pe_atom
1 2      -3.385077802841
2 2      -3.384976863017
3 2      -3.385175385573
4 2      -3.385098278070
5 2      -3.384932479788
6 2      -3.385109495270
7 2      -3.384886369522
8 2      -3.385117376367
9 2      -3.385119288476
10 2      -3.385140727864
11 2      -3.385115497607
12 2      -3.385019119077
13 1      -7.637601584607
14 1      -7.637535077754
15 1      -7.637584941745
16 1      -7.637566468087
17 1      -7.637577513674
18 1      -7.637586247247
19 1      -7.637663642426
20 1      -7.637670552686
21 1      -7.637670859225
22 1      -7.637712136681
23 1      -7.637622980191
24 1      -7.637747018355
25 1      -7.637527700375
26 1      -7.637624898416
27 1      -7.637667571871
28 1      -7.637602664347
29 1      -7.637550542705
30 1      -7.637527295449
