ITEM: TIMESTEP
0
ITEM: NUMBER OF ATOMS
120
ITEM: BOX BOUNDS xy xz yz pp pp pp
-5.0637155920000003e+00 1.0127431204000001e+01 -5.0637155920000003e+00
0.0000000000000000e+00 8.7706135340000007e+00 0.0000000000000000e+00
0.0000000000000000e+00 1.3631884907000000e+01 0.0000000000000000e+00
ITEM: ATOMS id type v_vir_xx v_vir_yy v_vir_zz v_vir_xy v_vir_xz v_vir_yz
1 2      -0.000000000000      -0.000000000000      -0.000000000000      -0.000000000000      -0.000000000000      -0.000000000000
2 2      -0.000000000000      -0.000000000000      -0.000000000000      -0.000000000000      -0.000000000000      -0.000000000000
3 2      -0.000000000000      -0.000000000000      -0.000000000000      -0.000000000000      -0.000000000000      -0.000000000000
4 2      -0.000000000000      -0.000000000000      -0.000000000000      -0.000000000000      -0.000000000000      -0.000000000000
5 2      -0.000000000000      -0.000000000000      -0.000000000000      -0.000000000000      -0.000000000000      -0.000000000000
6 2      -0.000000000000      -0.000000000000      -0.000000000000      -0.000000000000      -0.000000000000      -0.000000000000
7 2      -0.000000000000      -0.000000000000      -0.000000000000      -0.000000000000      -0.000000000000      -0.000000000000
8 2      -0.000000000000      -0.000000000000      -0.000000000000      -0.000000000000      -0.000000000000      -0.000000000000
9 2      -0.000000000000      -0.000000000000      -0.000000000000      -0.000000000000      -0.000000000000      -0.000000000000
10 2      -0.000000000000      -0.000000000000      -0.000000000000      -0.000000000000      -0.000000000000      -0.000000000000
11 2      -0.000000000000      -0.000000000000      -0.000000000000      -0.000000000000      -0.000000000000      -0.000000000000
12 2      -0.000000000000      -0.000000000000      -0.000000000000      -0.000000000000      -0.000000000000      -0.000000000000
13 2      -0.000000000000      -0.000000000000      -0.000000000000      -0.000000000000      -0.000000000000      -0.000000000000
14 2      -0.000000000000      -0.000000000000      -0.000000000000      -0.000000000000      -0.000000000000      -0.000000000000
15 2      -0.000000000000      -0.000000000000      -0.000000000000      -0.000000000000      -0.000000000000      -0.000000000000
16 2      -0.000000000000      -0.000000000000      -0.000000000000      -0.000000000000      -0.000000000000      -0.000000000000
17 2      -0.000000000000      -0.000000000000      -0.000000000000      -0.000000000000      -0.000000000000      -0.000000000000
18 2      -0.000000000000      -0.000000000000      -0.000000000000      -0.000000000000      -0.000000000000      -0.000000000000
19 2      -0.000000000000      -0.000000000000      -0.000000000000      -0.000000000000      -0.000000000000      -0.000000000000
20 2      -0.000000000000      -0.000000000000      -0.000000000000      -0.000000000000      -0.000000000000      -0.000000000000
21 2      -0.000000000000      -0.000000000000      -0.000000000000      -0.000000000000      -0.000000000000      -0.000000000000
22 2      -0.000000000000      -0.000000000000      -0.000000000000      -0.000000000000      -0.000000000000      -0.000000000000
23 2      -0.000000000000      -0.000000000000      -0.000000000000      -0.000000000000      -0.000000000000      -0.000000000000
24 2      -0.000000000000      -0.000000000000      -0.000000000000      -0.000000000000      -0.000000000000      -0.000000000000
25 2      -0.000000000000      -0.000000000000      -0.000000000000      -0.000000000000      -0.000000000000      -0.000000000000
26 2      -0.000000000000      -0.000000000000      -0.000000000000      -0.000000000000      -0.000000000000      -0.000000000000
27 2      -0.000000000000      -0.000000000000      -0.000000000000      -0.000000000000      -0.000000000000      -0.000000000000
28 2      -0.000000000000      -0.000000000000      -0.000000000000      -0.000000000000      -0.000000000000      -0.000000000000
29 2      -0.000000000000      -0.000000000000      -0.000000000000      -0.000000000000      -0.000000000000      -0.000000000000
30 2      -0.000000000000      -0.000000000000      -0.000000000000      -0.000000000000      -0.000000000000      -0.000000000000
31 2      -0.000000000000      -0.000000000000      -0.000000000000      -0.000000000000      -0.000000000000      -0.000000000000
32 2      -0.000000000000      -0.000000000000      -0.000000000000      -0.000000000000      -0.000000000000      -0.000000000000
33 2      -0.000000000000      -0.000000000000      -0.000000000000      -0.000000000000      -0.000000000000      -0.000000000000
34 2      -0.000000000000      -0.000000000000      -0.000000000000      -0.000000000000      -0.000000000000      -0.000000000000
35 2      -0.000000000000      -0.000000000000      -0.000000000000      -0.000000000000      -0.000000000000      -0.000000000000
36 2      -0.000000000000      -0.000000000000      -0.000000000000      -0.000000000000      -0.000000000000      -0.000000000000
37 2      -0.000000000000      -0.000000000000      -0.000000000000      -0.000000000000      -0.000000000000      -0.000000000000
38 2      -0.000000000000      -0.000000000000      -0.000000000000      -0.000000000000      -0.000000000000      -0.000000000000
39 2      -0.000000000000      -0.000000000000      -0.000000000000      -0.000000000000      -0.000000000000      -0.000000000000
40 2      -0.000000000000      -0.000000000000      -0.000000000000      -0.000000000000      -0.000000000000      -0.000000000000
41 2      -0.000000000000      -0.000000000000      -0.000000000000      -0.000000000000      -0.000000000000      -0.000000000000
42 2      -0.000000000000      -0.000000000000      -0.000000000000      -0.000000000000      -0.000000000000      -0.000000000000
43 2      -0.000000000000      -0.000000000000      -0.000000000000      -0.000000000000      -0.000000000000      -0.000000000000
44 2      -0.000000000000      -0.000000000000      -0.000000000000      -0.000000000000      -0.000000000000      -0.000000000000
45 2      -0.000000000000      -0.000000000000      -0.000000000000      -0.000000000000      -0.000000000000      -0.000000000000
46 2      -0.000000000000      -0.000000000000      -0.000000000000      -0.000000000000      -0.000000000000      -0.000000000000
47 2      -0.000000000000      -0.000000000000      -0.000000000000      -0.000000000000      -0.000000000000      -0.000000000000
48 2      -0.000000000000      -0.000000000000      -0.000000000000      -0.000000000000      -0.000000000000      -0.000000000000
49 1      -0.000000000000      -0.000000000000      -0.000000000000      -0.000000000000      -0.000000000000      -0.000000000000
50 1      -0.000000000000      -0.000000000000      -0.000000000000      -0.000000000000      -0.000000000000      -0.000000000000
51 1      -0.000000000000      -0.000000000000      -0.000000000000      -0.000000000000      -0.000000000000      -0.000000000000
52 1      -0.000000000000      -0.000000000000      -0.000000000000      -0.000000000000      -0.000000000000      -0.000000000000
53 1      -0.000000000000      -0.000000000000      -0.000000000000      -0.000000000000      -0.000000000000      -0.000000000000
54 1      -0.000000000000      -0.000000000000      -0.000000000000      -0.000000000000      -0.000000000000      -0.000000000000
55 1      -0.000000000000      -0.000000000000      -0.000000000000      -0.000000000000      -0.000000000000      -0.000000000000
56 1      -0.000000000000      -0.000000000000      -0.000000000000      -0.000000000000      -0.000000000000      -0.000000000000
57 1      -0.000000000000      -0.000000000000      -0.000000000000      -0.000000000000      -0.000000000000      -0.000000000000
58 1      -0.000000000000      -0.000000000000      -0.000000000000      -0.000000000000      -0.000000000000      -0.000000000000
59 1      -0.000000000000      -0.000000000000      -0.000000000000      -0.000000000000      -0.000000000000      -0.000000000000
60 1      -0.000000000000      -0.000000000000      -0.000000000000      -0.000000000000      -0.000000000000      -0.000000000000
61 1      -0.000000000000      -0.000000000000      -0.000000000000      -0.000000000000      -0.000000000000      -0.000000000000
62 1      -0.000000000000      -0.000000000000      -0.000000000000      -0.000000000000      -0.000000000000      -0.000000000000
63 1      -0.000000000000      -0.000000000000      -0.000000000000      -0.000000000000      -0.000000000000      -0.000000000000
64 1      -0.000000000000      -0.000000000000      -0.000000000000      -0.000000000000      -0.000000000000      -0.000000000000
65 1      -0.000000000000      -0.000000000000      -0.000000000000      -0.000000000000      -0.000000000000      -0.000000000000
66 1      -0.000000000000      -0.000000000000      -0.000000000000      -0.000000000000      -0.000000000000      -0.000000000000
67 1      -0.000000000000      -0.000000000000      -0.000000000000      -0.000000000000      -0.000000000000      -0.000000000000
68 1      -0.000000000000      -0.000000000000      -0.000000000000      -0.000000000000      -0.000000000000      -0.000000000000
69 1      -0.000000000000      -0.000000000000      -0.000000000000      -0.000000000000      -0.000000000000      -0.000000000000
70 1      -0.000000000000      -0.000000000000      -0.000000000000      -0.000000000000      -0.000000000000      -0.000000000000
71 1      -0.000000000000      -0.000000000000      -0.000000000000      -0.000000000000      -0.000000000000      -0.000000000000
72 1      -0.000000000000      -0.000000000000      -0.000000000000      -0.000000000000      -0.000000000000      -0.000000000000
73 1      -0.000000000000      -0.000000000000      -0.000000000000      -0.000000000000      -0.000000000000      -0.000000000000
74 1      -0.000000000000      -0.000000000000      -0.000000000000      -0.000000000000      -0.000000000000      -0.000000000000
75 1      -0.000000000000      -0.000000000000      -0.000000000000      -0.000000000000      -0.000000000000      -0.000000000000
76 1      -0.000000000000      -0.000000000000      -0.000000000000      -0.000000000000      -0.000000000000      -0.000000000000
77 1      -0.000000000000      -0.000000000000      -0.000000000000      -0.000000000000      -0.000000000000      -0.000000000000
78 1      -0.000000000000      -0.000000000000      -0.000000000000      -0.000000000000      -0.000000000000      -0.000000000000
79 1      -0.000000000000      -0.000000000000      -0.000000000000      -0.000000000000      -0.000000000000      -0.000000000000
80 1      -0.000000000000      -0.000000000000      -0.000000000000      -0.000000000000      -0.000000000000      -0.000000000000
81 1      -0.000000000000      -0.000000000000      -0.000000000000      -0.000000000000      -0.000000000000      -0.000000000000
82 1      -0.000000000000      -0.000000000000      -0.000000000000      -0.000000000000      -0.000000000000      -0.000000000000
83 1      -0.000000000000      -0.000000000000      -0.000000000000      -0.000000000000      -0.000000000000      -0.000000000000
84 1      -0.000000000000      -0.000000000000      -0.000000000000      -0.000000000000      -0.000000000000      -0.000000000000
85 1      -0.000000000000      -0.000000000000      -0.000000000000      -0.000000000000      -0.000000000000      -0.000000000000
86 1      -0.000000000000      -0.000000000000      -0.000000000000      -0.000000000000      -0.000000000000      -0.000000000000
87 1      -0.000000000000      -0.000000000000      -0.000000000000      -0.000000000000      -0.000000000000      -0.000000000000
88 1      -0.000000000000      -0.000000000000      -0.000000000000      -0.000000000000      -0.000000000000      -0.000000000000
89 1      -0.000000000000      -0.000000000000      -0.000000000000      -0.000000000000      -0.000000000000      -0.000000000000
90 1      -0.000000000000      -0.000000000000      -0.000000000000      -0.000000000000      -0.000000000000      -0.000000000000
91 1      -0.000000000000      -0.000000000000      -0.000000000000      -0.000000000000      -0.000000000000      -0.000000000000
92 1      -0.000000000000      -0.000000000000      -0.000000000000      -0.000000000000      -0.000000000000      -0.000000000000
93 1      -0.000000000000      -0.000000000000      -0.000000000000      -0.000000000000      -0.000000000000      -0.000000000000
94 1      -0.000000000000      -0.000000000000      -0.000000000000      -0.000000000000      -0.000000000000      -0.000000000000
95 1      -0.000000000000      -0.000000000000      -0.000000000000      -0.000000000000      -0.000000000000      -0.000000000000
96 1      -0.000000000000      -0.000000000000      -0.000000000000      -0.000000000000      -0.000000000000      -0.000000000000
97 1      -0.000000000000      -0.000000000000      -0.000000000000      -0.000000000000      -0.000000000000      -0.000000000000
98 1      -0.000000000000      -0.000000000000      -0.000000000000      -0.000000000000      -0.000000000000      -0.000000000000
99 1      -0.000000000000      -0.000000000000      -0.000000000000      -0.000000000000      -0.000000000000      -0.000000000000
100 1      -0.000000000000      -0.000000000000      -0.000000000000      -0.000000000000      -0.000000000000      -0.000000000000
101 1      -0.000000000000      -0.000000000000      -0.000000000000      -0.000000000000      -0.000000000000      -0.000000000000
102 1      -0.000000000000      -0.000000000000      -0.000000000000      -0.000000000000      -0.000000000000      -0.000000000000
103 1      -0.000000000000      -0.000000000000      -0.000000000000      -0.000000000000      -0.000000000000      -0.000000000000
104 1      -0.000000000000      -0.000000000000      -0.000000000000      -0.000000000000      -0.000000000000      -0.000000000000
105 1      -0.000000000000      -0.000000000000      -0.000000000000      -0.000000000000      -0.000000000000      -0.000000000000
106 1      -0.000000000000      -0.000000000000      -0.000000000000      -0.000000000000      -0.000000000000      -0.000000000000
107 1      -0.000000000000      -0.000000000000      -0.000000000000      -0.000000000000      -0.000000000000      -0.000000000000
108 1      -0.000000000000      -0.000000000000      -0.000000000000      -0.000000000000      -0.000000000000      -0.000000000000
109 1      -0.000000000000      -0.000000000000      -0.000000000000      -0.000000000000      -0.000000000000      -0.000000000000
110 1      -0.000000000000      -0.000000000000      -0.000000000000      -0.000000000000      -0.000000000000      -0.000000000000
111 1      -0.000000000000      -0.000000000000      -0.000000000000      -0.000000000000      -0.000000000000      -0.000000000000
112 1      -0.000000000000      -0.000000000000      -0.000000000000      -0.000000000000      -0.000000000000      -0.000000000000
113 1      -0.000000000000      -0.000000000000      -0.000000000000      -0.000000000000      -0.000000000000      -0.000000000000
114 1      -0.000000000000      -0.000000000000      -0.000000000000      -0.000000000000      -0.000000000000      -0.000000000000
115 1      -0.000000000000      -0.000000000000      -0.000000000000      -0.000000000000      -0.000000000000      -0.000000000000
116 1      -0.000000000000      -0.000000000000      -0.000000000000      -0.000000000000      -0.000000000000      -0.000000000000
117 1      -0.000000000000      -0.000000000000      -0.000000000000      -0.000000000000      -0.000000000000      -0.000000000000
118 1      -0.000000000000      -0.000000000000      -0.000000000000      -0.000000000000      -0.000000000000      -0.000000000000
119 1      -0.000000000000      -0.000000000000      -0.000000000000      -0.000000000000      -0.000000000000      -0.000000000000
120 1      -0.000000000000      -0.000000000000      -0.000000000000      -0.000000000000      -0.000000000000      -0.000000000000
