ITEM: TIMESTEP
0
ITEM: NUMBER OF ATOMS
120
ITEM: BOX BOUNDS xy xz yz pp pp pp
-5.0637155920000003e+00 1.0127431204000001e+01 -5.0637155920000003e+00
0.0000000000000000e+00 8.7706135340000007e+00 0.0000000000000000e+00
0.0000000000000000e+00 1.3631884907000000e+01 0.0000000000000000e+00
ITEM: ATOMS id type x y z fx fy fz
1 2       0.000000000000       0.000000000000       1.964200000000      -0.000028287138       0.000048363365      -0.096073549863
2 2       0.000000003333       2.923540000000       0.307790000000      -0.000032081340      -0.000043308226       0.095976225711
3 2       2.531860001667       1.461770000000       2.579760000000       0.000045073114      -0.000020584051       0.096021176523
4 2       0.000000003333       2.923540000000       4.236190000000       0.000039179682      -0.000016494295      -0.096071619552
5 2       2.531860001667       1.461770000000       6.508160000000      -0.000015710366      -0.000014224615      -0.096005491517
6 2       0.000000000000       0.000000000000       4.851740000000      -0.000063246940       0.000044236632       0.096098316168
7 2       0.000000003333       2.923540000000       7.123730000000       0.000022575714      -0.000055900459       0.096011854094
8 2       0.000000000000       0.000000000000       8.780140000000       0.000010531148       0.000074830529      -0.096066601151
9 2       0.000000003333       2.923540000000      11.052130000000      -0.000037886652      -0.000021073392      -0.096061230279
10 2       2.531860001667       1.461770000000       9.395700000000      -0.000021406333      -0.000017032769       0.096037320900
11 2       0.000000000000       0.000000000000      11.667680000000      -0.000032649282       0.000026486096       0.096093642098
12 2       2.531860001667       1.461770000000      13.324100000000      -0.000041873106      -0.000044042733      -0.095959702211
13 2       7.595570005000       4.385310000000       1.964200000000       0.000108669792      -0.000101394486      -0.096059335197
14 2      -2.531859991667       7.308840000000       0.307790000000       0.000065551242       0.000165167997       0.095966362128
15 2       0.000000006667       5.847080000000       2.579760000000       0.000018903897      -0.000044881131       0.096011805525
16 2      -2.531859991667       7.308840000000       4.236190000000       0.000071135340       0.000111474115      -0.096073534012
17 2       0.000000006667       5.847080000000       6.508160000000      -0.000025772068      -0.000120225993      -0.095992343265
18 2       7.595570005000       4.385310000000       4.851740000000       0.000017114647      -0.000082440464       0.096089689508
19 2      -2.531859991667       7.308840000000       7.123730000000       0.000079566825       0.000146831566       0.095987505731
20 2       7.595570005000       4.385310000000       8.780140000000       0.000099474170      -0.000081240632      -0.096050888725
21 2      -2.531859991667       7.308840000000      11.052130000000       0.000022676083       0.000138924740      -0.096077122805
22 2       0.000000006667       5.847080000000       9.395700000000      -0.000033106052      -0.000055155505       0.096026133472
23 2       7.595570005000       4.385310000000      11.667680000000       0.000103489729      -0.000081568544       0.096085909376
24 2       0.000000006667       5.847080000000      13.324100000000       0.000032336195      -0.000121949782      -0.095972815652
25 2       5.063720000000       0.000000000000       1.964200000000      -0.000096821841       0.000029946086      -0.096064378465
26 2       5.063720003333       2.923540000000       0.307790000000      -0.000096507575      -0.000042546346       0.095975990069
27 2       7.595570001667       1.461770000000       2.579760000000       0.000083603294      -0.000009542201       0.096021841673
28 2       5.063720003333       2.923540000000       4.236190000000      -0.000108917074      -0.000041393461      -0.096070561452
29 2       7.595570001667       1.461770000000       6.508160000000       0.000028292328      -0.000030908175      -0.096007346560
30 2       5.063720000000       0.000000000000       4.851740000000      -0.000137065264      -0.000014294131       0.096075828982
31 2       5.063720003333       2.923540000000       7.123730000000      -0.000045937248      -0.000032641107       0.096011920581
32 2       5.063720000000       0.000000000000       8.780140000000      -0.000032218017       0.000006567452      -0.096079139121
33 2       5.063720003333       2.923540000000      11.052130000000      -0.000122906540      -0.000008651072      -0.096047320240
34 2       7.595570001667       1.461770000000       9.395700000000       0.000042421709      -0.000016350403       0.096049367817
35 2       5.063720000000       0.000000000000      11.667680000000      -0.000086236270       0.000017187631       0.096111043866
36 2       7.595570001667       1.461770000000      13.324100000000       0.000095026264      -0.000035373533      -0.095977168751
37 2       2.531860005000       4.385310000000       1.964200000000      -0.000007073894      -0.000103487152      -0.096058514858
38 2       2.531860008333       7.308840000000       0.307790000000      -0.000062485202       0.000100358258       0.095970760080
39 2       5.063720006667       5.847080000000       2.579760000000      -0.000075582078      -0.000050663151       0.095998453006
40 2       2.531860008333       7.308840000000       4.236190000000       0.000000664402       0.000090243820      -0.096082506569
41 2       5.063720006667       5.847080000000       6.508160000000      -0.000128747945      -0.000125645761      -0.095977130294
42 2       2.531860005000       4.385310000000       4.851740000000      -0.000020107789      -0.000098036332       0.096088023697
43 2       2.531860008333       7.308840000000       7.123730000000       0.000058048036       0.000096659247       0.095988241177
44 2       2.531860005000       4.385310000000       8.780140000000       0.000013845861      -0.000100566127      -0.096057011635
45 2       2.531860008333       7.308840000000      11.052130000000      -0.000039153652       0.000065896476      -0.096073473860
46 2       5.063720006667       5.847080000000       9.395700000000      -0.000107959713      -0.000062285873       0.096017456492
47 2       2.531860005000       4.385310000000      11.667680000000       0.000026478319      -0.000090247290       0.096092623463
48 2       5.063720006667       5.847080000000      13.324100000000      -0.000093421506      -0.000105642907      -0.095971476654
49 1      -0.767259998485       1.328940000000       3.407970000000      -0.054801895324       0.094859171491       0.000041882111
50 1       1.534530000000       0.000000000000       3.407970000000       0.109494647832      -0.000065345685       0.000057006156
51 1       1.764600003485       3.056370000000       3.407970000000      -0.054839031571      -0.094835831228       0.000060599653
52 1       3.299120000151       0.132830000000       1.135990000000       0.054793215731      -0.094855715018       0.000027156542
53 1       3.299120003182       2.790700000000       1.135990000000       0.054763353598       0.094992990495       0.000053866719
54 1       0.997330001667       1.461770000000       1.135990000000      -0.109485886541      -0.000048477257       0.000033833614
55 1       1.764600003182       2.790700000000       7.951930000000      -0.054756838054       0.094983049362       0.000068631424
56 1       4.066390001667       1.461770000000       7.951930000000       0.109485397094      -0.000049214016       0.000053408301
57 1       1.764600000151       0.132830000000       7.951930000000      -0.054829890516      -0.094846021731       0.000072477667
58 1       0.767260001818       1.594600000000       5.679960000000       0.054725825834      -0.094901073749      -0.000101541034
59 1       0.767260004849       4.252470000000       5.679960000000       0.054843375624       0.094941154294      -0.000085376597
60 1      -1.534529996667       2.923540000000       5.679960000000      -0.109516186146       0.000069473901      -0.000119345684
61 1      -0.767259995151       4.252470000000      12.495900000000      -0.054869413967       0.094937590366      -0.000065917284
62 1       1.534530003333       2.923540000000      12.495900000000       0.109484316557       0.000065977475      -0.000083637076
63 1      -0.767259998182       1.594600000000      12.495900000000      -0.054763533217      -0.094886533820      -0.000068544367
64 1       8.362830003485       3.056370000000      10.223910000000       0.054855292105      -0.094845706671       0.000081482614
65 1       0.767260001515       1.328940000000      10.223910000000       0.054778857610       0.094857187865       0.000040665425
66 1       3.529190000000       0.000000000000      10.223910000000      -0.109562224041      -0.000100576172       0.000072052082
67 1       6.828310006515       5.714240000000       3.407970000000      -0.054703427442       0.094929638794       0.000092075444
68 1      -0.997329995000       4.385310000000       3.407970000000       0.109490474399      -0.000022043959       0.000045411485
69 1      -0.767259991515       7.441680000000       3.407970000000      -0.054845766460      -0.094909497284       0.000075496979
70 1       0.767260005151       4.518140000000       1.135990000000       0.054811727769      -0.094804651936       0.000043726477
71 1       0.767260008182       7.176010000000       1.135990000000       0.054781858052       0.094874733744       0.000026248524
72 1      -1.534529993333       5.847080000000       1.135990000000      -0.109455221849      -0.000122426417       0.000064638557
73 1      -0.767259991818       7.176010000000       7.951930000000      -0.054751169714       0.094893676199       0.000060745688
74 1       1.534530006667       5.847080000000       7.951930000000       0.109462356679      -0.000112743797       0.000085326149
75 1      -0.767259994849       4.518140000000       7.951930000000      -0.054828461209      -0.094800306970       0.000066484489
76 1      -1.764599993182       5.979910000000       5.679960000000       0.054728223622      -0.094925523993      -0.000104159007
77 1      -1.764599990151       8.637780000000       5.679960000000       0.054893116831       0.094814210251      -0.000130624766
78 1      -4.066389991667       7.308840000000       5.679960000000      -0.109435379973       0.000140368830      -0.000167166113
79 1      -3.299119990151       8.637780000000      12.495900000000      -0.054814304374       0.094818040627      -0.000079424056
80 1      -0.997329991667       7.308840000000      12.495900000000       0.109487920211       0.000131821919      -0.000143744192
81 1      -3.299119993182       5.979910000000      12.495900000000      -0.054695223707      -0.094907139160      -0.000114641591
82 1       5.830970008485       7.441680000000      10.223910000000       0.054910691496      -0.094878740512       0.000102478540
83 1      -1.764599993485       5.714240000000      10.223910000000       0.054791785312       0.094949638941       0.000042795728
84 1       0.997330005000       4.385310000000      10.223910000000      -0.109515627497      -0.000016166395       0.000040202864
85 1       4.296460001515       1.328940000000       3.407970000000      -0.054803034142       0.094869912705       0.000030829998
86 1       6.598240000000       0.000000000000       3.407970000000       0.109595033422      -0.000089328652       0.000074158671
87 1       6.828310003485       3.056370000000       3.407970000000      -0.054744594386      -0.094829693409       0.000044044964
88 1       8.362830000151       0.132830000000       1.135990000000       0.054862605932      -0.094850445628       0.000064130008
89 1       8.362830003182       2.790700000000       1.135990000000       0.054784034683       0.094986245148       0.000041051824
90 1       6.061050001667       1.461770000000       1.135990000000      -0.109537773411      -0.000035137580       0.000017746969
91 1       6.828320003182       2.790700000000       7.951930000000      -0.054844086817       0.094972679242       0.000041821722
92 1       9.130100001667       1.461770000000       7.951930000000       0.109526940907      -0.000049575575       0.000047597801
93 1       6.828320000151       0.132830000000       7.951930000000      -0.054893324665      -0.094837605189       0.000080147116
94 1       5.830970001818       1.594600000000       5.679960000000       0.054831578077      -0.094876997236      -0.000063153445
95 1       5.830970004849       4.252470000000       5.679960000000       0.054945767543       0.094925214338      -0.000095581394
96 1       3.529190003333       2.923540000000       5.679960000000      -0.109536427565       0.000069263690      -0.000104935456
97 1       4.296460004849       4.252470000000      12.495900000000      -0.054852554012       0.094952625718      -0.000062282202
98 1       6.598240003333       2.923540000000      12.495900000000       0.109533812694       0.000048503220      -0.000088310945
99 1       4.296450001818       1.594600000000      12.495900000000      -0.054603655508      -0.094908910165      -0.000113101846
100 1       3.299120003485       3.056370000000      10.223910000000       0.054833225018      -0.094825369373       0.000057589434
101 1       5.830970001515       1.328940000000      10.223910000000       0.054859565555       0.094860979531       0.000027304926
102 1       8.592900000000       0.000000000000      10.223910000000      -0.109493634467      -0.000051685964       0.000057187976
103 1       1.764600006515       5.714240000000       3.407970000000      -0.054791111558       0.094943550917       0.000042281848
104 1       4.066390005000       4.385310000000       3.407970000000       0.109494805276      -0.000008529597       0.000031508981
105 1       4.296460008485       7.441680000000       3.407970000000      -0.054872187548      -0.094882167263       0.000067408699
106 1       5.830980005151       4.518140000000       1.135990000000       0.054731897398      -0.094806287008       0.000005027548
107 1       5.830980008182       7.176010000000       1.135990000000       0.054672204751       0.094891215320       0.000060701617
108 1       3.529190006667       5.847080000000       1.135990000000      -0.109445407281      -0.000114750708       0.000066276112
109 1       4.296460008182       7.176010000000       7.951930000000      -0.054802403263       0.094893869926       0.000044863695
110 1       6.598240006667       5.847080000000       7.951930000000       0.109534850120      -0.000121372637       0.000079718007
111 1       4.296460005151       4.518140000000       7.951930000000      -0.054831107427      -0.094819067982       0.000079205884
112 1       3.299120006818       5.979910000000       5.679960000000       0.054741274600      -0.094910241642      -0.000107569765
113 1       3.299110009849       8.637780000000       5.679960000000       0.054953897880       0.094833979098      -0.000160766192
114 1       0.997330008333       7.308840000000       5.679960000000      -0.109494158463       0.000113614935      -0.000145700225
115 1       1.764600009849       8.637780000000      12.495900000000      -0.054870660664       0.094843054754      -0.000093375157
116 1       4.066380008333       7.308840000000      12.495900000000       0.109600296986       0.000116512500      -0.000117258136
117 1       1.764600006818       5.979910000000      12.495900000000      -0.054775160743      -0.094916928787      -0.000076577323
118 1       0.767260008485       7.441680000000      10.223910000000       0.054856955124      -0.094890968387       0.000066238635
119 1       3.299120006515       5.714240000000      10.223910000000       0.054790918319       0.094928611048       0.000041015596
120 1       6.061050005000       4.385310000000      10.223910000000      -0.109562834024      -0.000023140002       0.000038953137
