ITEM: TIMESTEP
0
ITEM: NUMBER OF ATOMS
160
ITEM: BOX BOUNDS pp pp pp
0.0000000000000000e+00 8.4420705480000002e+00
0.0000000000000000e+00 8.4420705480000002e+00
0.0000000000000000e+00 2.5326211644000001e+01
ITEM: ATOMS id type x y z fx fy fz
1 2       1.223250000000       5.240270000000      22.276570000000      -0.390258650667       0.173728604488      -0.039837178299
2 2       5.246120000000       0.852750000000      13.784990000000       0.037929139521       0.051340988927      -0.244704564762
3 2       7.217160000000       7.463600000000       7.448720000000      -0.002906736765      -0.213039579899      -0.198729789507
4 2       7.348650000000       7.192510000000      15.897730000000       0.039217329361       0.524627884502       0.050052423627
5 2       5.270380000000       5.290960000000       0.990740000000       0.298290223923       0.048400416838      -0.058542078295
6 2       3.055640000000       3.231220000000       7.267520000000       0.158538908523      -0.162157715522       0.103546354679
7 2       0.962270000000       1.055850000000       1.096730000000       0.097409419403       0.163686120762      -0.140564515704
8 2       5.211930000000       1.034340000000       5.285500000000      -0.016197574043       0.196531793597      -0.118235591311
9 2       3.209010000000       2.992220000000      15.784470000000      -0.071120484425       0.143249069238       0.010582292912
10 2       5.427800000000       1.126660000000      22.090800000000      -0.012708271823       0.050666894190       0.234865846076
11 2       3.166490000000       7.314480000000      11.608210000000      -0.137071280250       0.064774027883      -0.056131900999
12 2       7.485610000000       3.223860000000      19.974480000000      -0.118469084575      -0.430423842612       0.080960390816
13 2       1.029320000000       5.141430000000      13.594440000000      -0.024470742721       0.239529719557       0.097452423726
14 2       7.386420000000       3.249160000000       3.230930000000      -0.340178980736      -0.065355632630       0.062679775471
15 2       5.137640000000       5.372450000000       9.450700000000       0.238713879508      -0.044789436485       0.162020603596
16 2       7.420540000000       7.502850000000      24.298420000000       0.018066364301      -0.237547750137      -0.056059789549
17 2       3.219160000000       7.511790000000      20.089030000000       0.106455642810      -0.213842305552      -0.115985719366
18 2       0.921710000000       1.083280000000       9.603280000000       0.163175211234      -0.204844499574      -0.180775752212
19 2       3.252800000000       7.485420000000       3.129160000000      -0.109974082195      -0.158724609473       0.055707540514
20 2       1.189880000000       1.040930000000      17.966970000000      -0.273620907036      -0.081999476313      -0.124254531437
21 2       3.965530000000       0.190660000000       8.452620000000       0.066870650857      -0.050326405689       0.017235368540
22 2       6.187120000000       6.166190000000      12.641590000000       0.333508945297      -0.030445080360      -0.175186839258
23 2       2.178230000000       2.146630000000      21.120480000000       0.004346706243      -0.110820233719       0.071748551464
24 2       6.460200000000       6.351130000000      21.077460000000      -0.011194077651      -0.003729858183       0.369738253289
25 2       1.980920000000       6.456190000000       8.355020000000      -0.146499416976      -0.219801927037      -0.034966650359
26 2       8.389270000000       2.080540000000       6.293280000000      -0.271402871431      -0.188859134835       0.134102739462
27 2       2.012480000000       2.114910000000       4.258430000000       0.157385553756      -0.096769476898      -0.247263086044
28 2       0.056980000000       2.032730000000      14.742750000000      -0.161685852783      -0.078390506823       0.371021627994
29 2       0.162680000000       6.259670000000      18.947310000000       0.060320204851       0.345578341894       0.321073452531
30 2       6.320390000000       0.055320000000       2.119230000000       0.024157269204      -0.012793204567      -0.052142408726
31 2       6.145360000000       0.072430000000      10.613540000000       0.445870997212      -0.130994375588       0.226211110757
32 2       4.205010000000       2.216250000000      18.945950000000       0.352552082166       0.103620543131      -0.230647643643
33 2       6.463320000000       8.410420000000      19.003870000000      -0.232766551485       0.484518637428      -0.251011281081
34 2       6.409760000000       2.060260000000      16.863180000000      -0.075468122466      -0.490274942490       0.296599986894
35 2       0.162200000000       2.078360000000      23.274640000000      -0.025130771771       0.274113850702       0.096738588971
36 2       2.054910000000       8.233590000000      14.866610000000      -0.140020069339       0.102285468776       0.025715365135
37 2       4.041040000000       6.081010000000      14.780840000000       0.165747378775       0.077773618308       0.130265685478
38 2       6.290150000000       4.235290000000       6.362290000000      -0.270932843421       0.219439219826      -0.330890652698
39 2       4.249030000000       6.435180000000      23.255140000000       0.346097041992       0.421516958363      -0.149044385649
40 2       0.098130000000       4.220550000000      16.878100000000       0.164897001760      -0.306187945515      -0.135828736653
41 2       2.100380000000       4.275480000000       2.110170000000       0.006049899529      -0.011173335756      -0.010165791239
42 2       4.162610000000       4.343940000000      21.050180000000       0.296641980852      -0.057679735421      -0.267893820226
43 2       4.173440000000       8.251110000000      16.944310000000       0.448464125180       0.105179851396       0.236570311648
44 2       6.364380000000       4.274160000000      23.158650000000       0.406100272036      -0.093240989509       0.338138509051
45 2       8.378380000000       6.266780000000      10.526900000000      -0.166485729877       0.252569346154       0.271638081600
46 2       8.428460000000       8.366820000000      12.689980000000      -0.165486288511      -0.174379859891      -0.218367749807
47 2       0.021270000000       4.315380000000       0.044840000000      -0.358129329198      -0.098400798420      -0.328239825683
48 2       6.264250000000       4.097190000000      14.746350000000       0.144419101795       0.011861989055      -0.326863018241
49 2       4.181890000000       4.224010000000       4.175270000000       0.355105919366       0.138702985015       0.292320138968
50 2       2.140650000000       2.050900000000      12.592030000000       0.294348017680      -0.229738309260       0.233524959597
51 2       2.109170000000       4.149930000000      10.569090000000       0.144376867755       0.278902462045      -0.219732224552
52 2       0.040810000000       6.492420000000       2.212630000000       0.065594627613      -0.240998612645       0.056711345322
53 2       0.204870000000       8.401820000000      21.206430000000      -0.255230716183      -0.052223798644       0.002088978856
54 2       4.156500000000       2.050700000000       2.000450000000      -0.046125471354       0.238871938391      -0.018270446594
55 2       6.255950000000       2.065410000000      25.277340000000      -0.074428082256       0.313920405327      -0.151958008648
56 2       8.421870000000       4.166320000000       8.440910000000      -0.092500012217       0.145196959744      -0.030578680671
57 2       6.130960000000       2.179920000000       8.542930000000       0.198849081924       0.137270214580      -0.000690111715
58 2       4.054850000000       6.472540000000       6.276050000000       0.048973332659      -0.384693733353      -0.252976107208
59 2       6.389130000000       6.480090000000       4.278550000000       0.111283241563      -0.402898898495       0.133210660060
60 2       2.199680000000       6.434070000000      25.297440000000      -0.254671440323       0.104193006663       0.200165947252
61 2       5.201190000000       3.144630000000      11.651440000000      -0.101328159193      -0.033443420030       0.022750407336
62 2       3.202850000000       1.075830000000      24.247220000000       0.114319891995      -0.219278600303       0.080206623329
63 2       3.187870000000       5.214470000000      17.932990000000       0.004209635431      -0.007269442514      -0.041278250079
64 2       0.996030000000       7.461060000000       5.274630000000      -0.044679218548       0.091897967474      -0.072068850441
65 1       2.139100000000       2.156750000000       2.134880000000       0.268229610857       0.139273772153       0.244220193056
66 1       6.203790000000       6.278370000000       6.293880000000       0.062269896398      -0.118098506247      -0.189558605838
67 1       4.299000000000       8.368490000000       6.480600000000       0.009557469033       0.129354587136      -0.137167266306
68 1       4.343070000000       0.131100000000       2.119480000000      -0.038634871380      -0.032548584707      -0.017248114772
69 1       8.317780000000       6.434010000000       4.148380000000       0.265518716451       0.017893511243       0.231650390761
70 1       0.036530000000       2.216180000000       4.310740000000       0.159889998022      -0.091879628182       0.154029182343
71 1       6.237380000000       4.193730000000       8.413290000000       0.239320974718      -0.284654296924      -0.116207252233
72 1       1.909730000000       4.486210000000       0.246020000000      -0.065305872902      -0.138768125188       0.154050903706
73 1       8.429480000000       4.389380000000       2.096440000000       0.282286534117       0.084188790000      -0.120914271500
74 1       8.169260000000       4.035850000000       6.578640000000      -0.026973214248       0.037206662748       0.145300835944
75 1       4.325920000000       2.103600000000       0.061000000000      -0.285194504969       0.024823653847      -0.160757745882
76 1       4.046400000000       6.425010000000       8.308730000000      -0.149876121871       0.107499797541      -0.110452643666
77 1       2.125720000000       0.079250000000       4.206700000000       0.089450026446       0.197992220280      -0.018990234802
78 1       6.186970000000       8.384320000000       4.119840000000      -0.014210799006       0.213189062602       0.046557063083
79 1       2.121570000000       6.462600000000       6.412710000000      -0.200055377459       0.040961923290      -0.273710630689
80 1       6.271530000000       2.136050000000       2.046240000000      -0.086476175171      -0.197393481651      -0.089059277571
81 1       4.219190000000       4.153250000000       2.120590000000      -0.285181436652      -0.109708548973       0.137285446425
82 1       4.254090000000       4.363590000000       6.215480000000      -0.154276719662      -0.109137428611      -0.019205941567
83 1       8.243540000000       2.116760000000       8.433500000000      -0.040188276073       0.234783135057      -0.283010162298
84 1       0.041890000000       6.354970000000       0.085290000000       0.332951751949      -0.106725924779      -0.079587069178
85 1       8.301540000000       0.065590000000       6.353510000000       0.111850249890       0.214458692614      -0.031933285334
86 1       8.301640000000       8.413570000000       2.099200000000       0.038658221867       0.026682551305       0.020315968737
87 1       4.271570000000       6.279300000000       4.271310000000      -0.115794200873       0.028641419873       0.117962018021
88 1       4.156920000000       2.183640000000       4.145330000000      -0.290190465627       0.057727273485       0.064726412605
89 1       6.303200000000       2.176430000000       6.398920000000       0.291876844473       0.035961026465       0.001945423949
90 1       2.069410000000       6.389740000000       2.084650000000      -0.273842141165      -0.124430575013      -0.202219867180
91 1       2.294770000000       4.063870000000       3.971780000000       0.077745420621       0.135455654642      -0.118152890896
92 1       6.208060000000       4.355220000000       4.307930000000       0.098224451385       0.029234345456       0.062985191873
93 1       6.443170000000       0.156720000000       0.112920000000       0.023257025035      -0.144487233604      -0.010398145188
94 1       2.061200000000       8.393920000000       8.611920000000       0.119383237660       0.325240229040       0.076323115735
95 1       6.373110000000       6.409220000000       2.174620000000       0.071750896085       0.182687768381       0.139001492407
96 1       1.924450000000       2.200370000000       6.209600000000      -0.038357025746      -0.125842346349       0.109160562047
97 1       2.013280000000       2.176320000000      10.635510000000       0.226262698681       0.067298892384       0.025830830344
98 1       6.253700000000       6.166030000000      14.703150000000      -0.155077923694      -0.223446423901      -0.186940259583
99 1       4.142340000000       8.256310000000      14.916030000000      -0.054649187258      -0.209972607662       0.147083742102
100 1       4.251720000000       8.260300000000      10.414760000000      -0.188170440760       0.031596563051       0.127044750139
101 1       8.295200000000       6.337240000000      12.563700000000       0.033373041596      -0.113512139568      -0.068198297972
102 1       0.184630000000       1.798180000000      12.876630000000      -0.103546463209      -0.025721028577      -0.063825267323
103 1       6.610910000000       3.924620000000      16.627860000000      -0.118244864272       0.013461939592       0.014563161735
104 1       2.040830000000       4.345300000000       8.448550000000      -0.222961250646       0.009630438111       0.268345392061
105 1       0.140200000000       4.392390000000      10.302890000000      -0.081270021752       0.014002361442      -0.118562901658
106 1       0.009280000000       4.048940000000      14.781530000000      -0.182510064819      -0.038275990571       0.238190582928
107 1       4.189990000000       2.099380000000       8.269700000000      -0.349014128332      -0.121496790321      -0.091300035906
108 1       4.137340000000       6.339610000000      16.758580000000      -0.066069774727      -0.065475948130       0.325951777361
109 1       2.045420000000       8.401720000000      12.719760000000      -0.037459019973       0.272565573362      -0.118466607572
110 1       6.382820000000       8.278910000000      12.616360000000       0.066329935871       0.123614690807      -0.141998838497
111 1       2.121750000000       6.307620000000      14.599940000000       0.084152692013      -0.360210672194      -0.123241171071
112 1       6.153150000000       2.010400000000      10.478460000000      -0.008691065668       0.201058240823       0.237317223311
113 1       4.136770000000       4.269290000000      10.561220000000      -0.223660601114      -0.133378664264       0.103164259181
114 1       4.312350000000       4.172000000000      14.875900000000      -0.064343648207       0.209116735485       0.023744775068
115 1       0.032370000000       2.046870000000      16.779740000000      -0.024879835959       0.235652799771       0.076192189181
116 1       8.402470000000       6.349230000000       8.471570000000       0.271809745060      -0.239029527227       0.156915033110
117 1       0.044230000000       8.320040000000      14.776980000000       0.250288521353       0.121442601134      -0.090012105543
118 1       8.253320000000       8.311160000000      10.656140000000       0.161221907785       0.128701998952       0.030327721488
119 1       4.292220000000       6.411820000000      12.813370000000      -0.108532897447      -0.000402640025      -0.029627594486
120 1       4.186160000000       1.961760000000      12.715160000000      -0.226455085668      -0.012629983182      -0.033198674411
121 1       6.424490000000       1.977620000000      14.804770000000       0.203493539717       0.346804224417       0.087008915287
122 1       2.007340000000       6.251310000000      10.487050000000      -0.051099153784      -0.230750886061       0.018876316021
123 1       2.050090000000       4.030120000000      12.524940000000       0.099977586550       0.002431755248       0.017192746992
124 1       6.240730000000       4.236510000000      12.788720000000      -0.135045325272      -0.214849963121      -0.228263970147
125 1       6.161530000000       0.109690000000       8.580740000000      -0.115172343420       0.170037713652       0.133006237907
126 1       2.249580000000       0.059370000000      16.789740000000      -0.210722600756      -0.070968725854       0.113591046638
127 1       6.340790000000       6.365980000000      10.601830000000       0.112605784854      -0.099364357820       0.247758093902
128 1       2.113140000000       1.895120000000      14.693520000000      -0.275109154144       0.052383864135      -0.292875082602
129 1       2.293330000000       2.011350000000      19.114590000000      -0.064356092136      -0.082435137739       0.019294787244
130 1       6.384960000000       6.362300000000      23.120110000000      -0.218355119404      -0.049210443538       0.054919555931
131 1       4.358530000000       0.037290000000      23.169070000000       0.020580882878      -0.258359480359       0.036679297029
132 1       4.407320000000       0.067210000000      18.928840000000      -0.004631434121      -0.202698736421      -0.034846777027
133 1       0.113840000000       6.395410000000      21.137630000000      -0.007519960760       0.143875797188      -0.250054482796
134 1       0.114820000000       2.091380000000      21.167300000000       0.224796462094       0.051663435014       0.129668168353
135 1       6.444170000000       4.189860000000      25.230330000000      -0.105839343111      -0.062228992427      -0.052334756209
136 1       2.121270000000       4.071130000000      16.866320000000      -0.133882886999       0.057725020782       0.018586200546
137 1       0.050440000000       4.288070000000      18.854860000000       0.134720709858       0.157563855101      -0.103595708487
138 1       8.402030000000       4.174930000000      23.320990000000       0.123686496204       0.097902649926       0.002279675209
139 1       4.376440000000       1.959740000000      16.957580000000       0.048529454517       0.192931589667       0.032667122429
140 1       4.181730000000       6.322210000000      25.227160000000      -0.159549364719       0.087503546577      -0.122553337976
141 1       2.109440000000       0.144980000000      21.093510000000       0.022947676607      -0.034428408083       0.018723233854
142 1       6.533100000000       0.017120000000      21.031170000000       0.034648322537      -0.321343445512      -0.176907532294
143 1       2.277770000000       6.344870000000      23.344520000000      -0.045617833512       0.101927215263      -0.071606882779
144 1       6.347490000000       2.013010000000      18.911100000000      -0.085700073084       0.060009213800      -0.079369472730
145 1       4.229060000000       4.148870000000      19.105420000000      -0.052470685479       0.182703511842      -0.337069770289
146 1       4.507310000000       4.505990000000      22.937130000000      -0.019890045517      -0.139684052616      -0.012433414479
147 1       8.376320000000       2.260250000000      25.280380000000       0.129534922958       0.009606820987      -0.119676968249
148 1       0.015050000000       6.179550000000      16.974310000000       0.255598896015      -0.078950188539       0.038946204199
149 1       8.356020000000       0.162670000000      23.118710000000      -0.010867248012      -0.161960326293       0.120238152494
150 1       0.059000000000       8.407780000000      19.074360000000       0.003289510812      -0.313430741185      -0.091497192024
151 1       4.387100000000       6.402440000000      21.121740000000       0.083735970501      -0.276038998580       0.179569071571
152 1       4.281110000000       2.217610000000      21.002470000000      -0.261170486064       0.230042038537      -0.098241646484
153 1       6.459350000000       2.260910000000      23.264800000000      -0.023503711199       0.055250410499       0.125657941822
154 1       2.167160000000       6.365310000000      19.029220000000      -0.073754156828       0.109679242577       0.051388326297
155 1       2.240600000000       4.118690000000      21.202190000000      -0.037331332232       0.027267659806      -0.027033350719
156 1       6.429580000000       4.330610000000      21.120700000000      -0.288641825514       0.109930054712       0.106038283426
157 1       6.293660000000       0.005550000000      16.959290000000       0.092440110104       0.029693577764       0.094074113171
158 1       2.089040000000       0.016760000000       0.016560000000      -0.077800716649      -0.134099297147       0.008615373783
159 1       6.669550000000       6.530320000000      19.210070000000      -0.157062376402      -0.014283761413      -0.067927476102
160 1       2.071090000000       2.068870000000      23.120250000000       0.141796425998      -0.062430881117       0.169510113220
