# LAMMPS data file converted from structure.xyz
160 atoms
2 atom types
0.000000000000 8.442070548000 xlo xhi
0.000000000000 8.442070548000 ylo yhi
0.000000000000 25.326211644000 zlo zhi

Masses

1 15.9994  # O
2 69.7230  # Ga

Atoms  # atomic

1 2 1.223250000000 5.240270000000 22.276570000000
2 2 5.246120000000 0.852750000000 13.784990000000
3 2 7.217160000000 7.463600000000 7.448720000000
4 2 7.348650000000 7.192510000000 15.897730000000
5 2 5.270380000000 5.290960000000 0.990740000000
6 2 3.055640000000 3.231220000000 7.267520000000
7 2 0.962270000000 1.055850000000 1.096730000000
8 2 5.211930000000 1.034340000000 5.285500000000
9 2 3.209010000000 2.992220000000 15.784470000000
10 2 5.427800000000 1.126660000000 22.090800000000
11 2 3.166490000000 7.314480000000 11.608210000000
12 2 7.485610000000 3.223860000000 19.974480000000
13 2 1.029320000000 5.141430000000 13.594440000000
14 2 7.386420000000 3.249160000000 3.230930000000
15 2 5.137640000000 5.372450000000 9.450700000000
16 2 7.420540000000 7.502850000000 24.298420000000
17 2 3.219160000000 7.511790000000 20.089030000000
18 2 0.921710000000 1.083280000000 9.603280000000
19 2 3.252800000000 7.485420000000 3.129160000000
20 2 1.189880000000 1.040930000000 17.966970000000
21 2 3.965530000000 0.190660000000 8.452620000000
22 2 6.187120000000 6.166190000000 12.641590000000
23 2 2.178230000000 2.146630000000 21.120480000000
24 2 6.460200000000 6.351130000000 21.077460000000
25 2 1.980920000000 6.456190000000 8.355020000000
26 2 8.389270000000 2.080540000000 6.293280000000
27 2 2.012480000000 2.114910000000 4.258430000000
28 2 0.056980000000 2.032730000000 14.742750000000
29 2 0.162680000000 6.259670000000 18.947310000000
30 2 6.320390000000 0.055320000000 2.119230000000
31 2 6.145360000000 0.072430000000 10.613540000000
32 2 4.205010000000 2.216250000000 18.945950000000
33 2 6.463320000000 8.410420000000 19.003870000000
34 2 6.409760000000 2.060260000000 16.863180000000
35 2 0.162200000000 2.078360000000 23.274640000000
36 2 2.054910000000 8.233590000000 14.866610000000
37 2 4.041040000000 6.081010000000 14.780840000000
38 2 6.290150000000 4.235290000000 6.362290000000
39 2 4.249030000000 6.435180000000 23.255140000000
40 2 0.098130000000 4.220550000000 16.878100000000
41 2 2.100380000000 4.275480000000 2.110170000000
42 2 4.162610000000 4.343940000000 21.050180000000
43 2 4.173440000000 8.251110000000 16.944310000000
44 2 6.364380000000 4.274160000000 23.158650000000
45 2 8.378380000000 6.266780000000 10.526900000000
46 2 8.428460000000 8.366820000000 12.689980000000
47 2 0.021270000000 4.315380000000 0.044840000000
48 2 6.264250000000 4.097190000000 14.746350000000
49 2 4.181890000000 4.224010000000 4.175270000000
50 2 2.140650000000 2.050900000000 12.592030000000
51 2 2.109170000000 4.149930000000 10.569090000000
52 2 0.040810000000 6.492420000000 2.212630000000
53 2 0.204870000000 8.401820000000 21.206430000000
54 2 4.156500000000 2.050700000000 2.000450000000
55 2 6.255950000000 2.065410000000 25.277340000000
56 2 8.421870000000 4.166320000000 8.440910000000
57 2 6.130960000000 2.179920000000 8.542930000000
58 2 4.054850000000 6.472540000000 6.276050000000
59 2 6.389130000000 6.480090000000 4.278550000000
60 2 2.199680000000 6.434070000000 25.297440000000
61 2 5.201190000000 3.144630000000 11.651440000000
62 2 3.202850000000 1.075830000000 24.247220000000
63 2 3.187870000000 5.214470000000 17.932990000000
64 2 0.996030000000 7.461060000000 5.274630000000
65 1 2.139100000000 2.156750000000 2.134880000000
66 1 6.203790000000 6.278370000000 6.293880000000
67 1 4.299000000000 8.368490000000 6.480600000000
68 1 4.343070000000 0.131100000000 2.119480000000
69 1 8.317780000000 6.434010000000 4.148380000000
70 1 0.036530000000 2.216180000000 4.310740000000
71 1 6.237380000000 4.193730000000 8.413290000000
72 1 1.909730000000 4.486210000000 0.246020000000
73 1 8.429480000000 4.389380000000 2.096440000000
74 1 8.169260000000 4.035850000000 6.578640000000
75 1 4.325920000000 2.103600000000 0.061000000000
76 1 4.046400000000 6.425010000000 8.308730000000
77 1 2.125720000000 0.079250000000 4.206700000000
78 1 6.186970000000 8.384320000000 4.119840000000
79 1 2.121570000000 6.462600000000 6.412710000000
80 1 6.271530000000 2.136050000000 2.046240000000
81 1 4.219190000000 4.153250000000 2.120590000000
82 1 4.254090000000 4.363590000000 6.215480000000
83 1 8.243540000000 2.116760000000 8.433500000000
84 1 0.041890000000 6.354970000000 0.085290000000
85 1 8.301540000000 0.065590000000 6.353510000000
86 1 8.301640000000 8.413570000000 2.099200000000
87 1 4.271570000000 6.279300000000 4.271310000000
88 1 4.156920000000 2.183640000000 4.145330000000
89 1 6.303200000000 2.176430000000 6.398920000000
90 1 2.069410000000 6.389740000000 2.084650000000
91 1 2.294770000000 4.063870000000 3.971780000000
92 1 6.208060000000 4.355220000000 4.307930000000
93 1 6.443170000000 0.156720000000 0.112920000000
94 1 2.061200000000 8.393920000000 8.611920000000
95 1 6.373110000000 6.409220000000 2.174620000000
96 1 1.924450000000 2.200370000000 6.209600000000
97 1 2.013280000000 2.176320000000 10.635510000000
98 1 6.253700000000 6.166030000000 14.703150000000
99 1 4.142340000000 8.256310000000 14.916030000000
100 1 4.251720000000 8.260300000000 10.414760000000
101 1 8.295200000000 6.337240000000 12.563700000000
102 1 0.184630000000 1.798180000000 12.876630000000
103 1 6.610910000000 3.924620000000 16.627860000000
104 1 2.040830000000 4.345300000000 8.448550000000
105 1 0.140200000000 4.392390000000 10.302890000000
106 1 0.009280000000 4.048940000000 14.781530000000
107 1 4.189990000000 2.099380000000 8.269700000000
108 1 4.137340000000 6.339610000000 16.758580000000
109 1 2.045420000000 8.401720000000 12.719760000000
110 1 6.382820000000 8.278910000000 12.616360000000
111 1 2.121750000000 6.307620000000 14.599940000000
112 1 6.153150000000 2.010400000000 10.478460000000
113 1 4.136770000000 4.269290000000 10.561220000000
114 1 4.312350000000 4.172000000000 14.875900000000
115 1 0.032370000000 2.046870000000 16.779740000000
116 1 8.402470000000 6.349230000000 8.471570000000
117 1 0.044230000000 8.320040000000 14.776980000000
118 1 8.253320000000 8.311160000000 10.656140000000
119 1 4.292220000000 6.411820000000 12.813370000000
120 1 4.186160000000 1.961760000000 12.715160000000
121 1 6.424490000000 1.977620000000 14.804770000000
122 1 2.007340000000 6.251310000000 10.487050000000
123 1 2.050090000000 4.030120000000 12.524940000000
124 1 6.240730000000 4.236510000000 12.788720000000
125 1 6.161530000000 0.109690000000 8.580740000000
126 1 2.249580000000 0.059370000000 16.789740000000
127 1 6.340790000000 6.365980000000 10.601830000000
128 1 2.113140000000 1.895120000000 14.693520000000
129 1 2.293330000000 2.011350000000 19.114590000000
130 1 6.384960000000 6.362300000000 23.120110000000
131 1 4.358530000000 0.037290000000 23.169070000000
132 1 4.407320000000 0.067210000000 18.928840000000
133 1 0.113840000000 6.395410000000 21.137630000000
134 1 0.114820000000 2.091380000000 21.167300000000
135 1 6.444170000000 4.189860000000 25.230330000000
136 1 2.121270000000 4.071130000000 16.866320000000
137 1 0.050440000000 4.288070000000 18.854860000000
138 1 8.402030000000 4.174930000000 23.320990000000
139 1 4.376440000000 1.959740000000 16.957580000000
140 1 4.181730000000 6.322210000000 25.227160000000
141 1 2.109440000000 0.144980000000 21.093510000000
142 1 6.533100000000 0.017120000000 21.031170000000
143 1 2.277770000000 6.344870000000 23.344520000000
144 1 6.347490000000 2.013010000000 18.911100000000
145 1 4.229060000000 4.148870000000 19.105420000000
146 1 4.507310000000 4.505990000000 22.937130000000
147 1 8.376320000000 2.260250000000 25.280380000000
148 1 0.015050000000 6.179550000000 16.974310000000
149 1 8.356020000000 0.162670000000 23.118710000000
150 1 0.059000000000 8.407780000000 19.074360000000
151 1 4.387100000000 6.402440000000 21.121740000000
152 1 4.281110000000 2.217610000000 21.002470000000
153 1 6.459350000000 2.260910000000 23.264800000000
154 1 2.167160000000 6.365310000000 19.029220000000
155 1 2.240600000000 4.118690000000 21.202190000000
156 1 6.429580000000 4.330610000000 21.120700000000
157 1 6.293660000000 0.005550000000 16.959290000000
158 1 2.089040000000 0.016760000000 0.016560000000
159 1 6.669550000000 6.530320000000 19.210070000000
160 1 2.071090000000 2.068870000000 23.120250000000
