ITEM: TIMESTEP
0
ITEM: NUMBER OF ATOMS
30
ITEM: BOX BOUNDS xy xz yz pp pp pp
-2.5521126629999999e+00 5.1042253270000000e+00 -2.5521126629999999e+00
0.0000000000000000e+00 4.4203892209999998e+00 0.0000000000000000e+00
0.0000000000000000e+00 1.3740939987000001e+01 0.0000000000000000e+00
ITEM: ATOMS id type x y z fx fy fz
1 2       0.000000000000       0.000000000000       1.979880000000      -0.000015848141      -0.000019705789      -0.129286962917
2 2       0.000000000000       2.946930000000       0.310280000000      -0.000008474667      -0.000085394429       0.129199308484
3 2       2.552110000000       1.473460000000       2.600430000000       0.000006168753       0.000041974836       0.129087601579
4 2       0.000000000000       2.946930000000       4.270040000000      -0.000002267861      -0.000075180952      -0.129213589652
5 2       2.552110000000       1.473460000000       6.560190000000       0.000090642418       0.000110113205      -0.129134195670
6 2       0.000000000000       0.000000000000       4.890590000000      -0.000040952129       0.000026391143       0.129261223559
7 2       0.000000000000       2.946930000000       7.180750000000       0.000018899041      -0.000093917067       0.129203838462
8 2       0.000000000000       0.000000000000       8.850350000000       0.000041997721      -0.000008712973      -0.129282389119
9 2       0.000000000000       2.946930000000      11.140510000000      -0.000015217902      -0.000073773244      -0.129182302962
10 2       2.552110000000       1.473460000000       9.470900000000       0.000073313668       0.000062920617       0.129098587009
11 2       0.000000000000       0.000000000000      11.761060000000      -0.000034103898       0.000032830102       0.129229883536
12 2       2.552110000000       1.473460000000      13.430660000000       0.000011036826       0.000088675270      -0.129145277969
13 1       4.330870000000       1.339480000000       3.435230000000      -0.060378128044       0.104813409604       0.000121414371
14 1       1.546690000000       0.000000000000       3.435230000000       0.121077962721      -0.000015457605       0.000063723172
15 1       1.778770000000       3.080910000000       3.435230000000      -0.060659792162      -0.104769117191       0.000103940181
16 1       3.325460000000       0.133990000000       1.145070000000       0.060569112384      -0.104840457911       0.000127722626
17 1       3.325460000000       2.812940000000       1.145070000000       0.060454358375       0.104854918805       0.000108673215
18 1       1.005420000000       1.473460000000       1.145070000000      -0.121071382332       0.000011063776       0.000092602245
19 1       1.778770000000       2.812940000000       8.015540000000      -0.060516636612       0.104850176862       0.000094455971
20 1       4.098810000000       1.473460000000       8.015540000000       0.121023541765       0.000005134856       0.000085425103
21 1       1.778770000000       0.133990000000       8.015540000000      -0.060642365062      -0.104822156586       0.000160694054
22 1       0.773350000000       1.607450000000       5.725400000000       0.060386511643      -0.104867971760      -0.000205457369
23 1       0.773340000000       4.286400000000       5.725400000000       0.060720977344       0.104819512836      -0.000219673758
24 1      -1.546690000000       2.946930000000       5.725400000000      -0.121120395352      -0.000016346368      -0.000116510344
25 1      -0.773350000000       4.286400000000      12.595870000000      -0.060567176170       0.104830992074      -0.000165502650
26 1       1.546690000000       2.946930000000      12.595870000000       0.121076594536       0.000004264311      -0.000133796666
27 1      -0.773350000000       1.607450000000      12.595870000000      -0.060430445876      -0.104874041021      -0.000182452199
28 1       3.325460000000       3.080910000000      10.305700000000       0.060541788352      -0.104780069072       0.000062095427
29 1       0.773350000000       1.339480000000      10.305700000000       0.060431674529       0.104808509855       0.000101322459
30 1       3.557530000000       0.000000000000      10.305700000000      -0.121021393872      -0.000018586184       0.000065599825
