ITEM: TIMESTEP
0
ITEM: NUMBER OF ATOMS
30
ITEM: BOX BOUNDS xy xz yz pp pp pp
-2.5116029284999999e+00 5.0232058769999997e+00 -2.5116029284999999e+00
0.0000000000000000e+00 4.3502243130000000e+00 0.0000000000000000e+00
0.0000000000000000e+00 1.3522829828000001e+01 0.0000000000000000e+00
ITEM: ATOMS id type c_pe_atom
1 2      -4.541966565665
2 2      -4.541960125598
3 2      -4.541984163985
4 2      -4.541973617230
5 2      -4.541959171033
6 2      -4.541973001727
7 2      -4.541959193688
8 2      -4.541971932038
9 2      -4.541986370573
10 2      -4.541970639139
11 2      -4.541965521887
12 2      -4.541959468674
13 1     -11.134946854311
14 1     -11.134954577896
15 1     -11.134950367489
16 1     -11.134964914153
17 1     -11.134955717577
18 1     -11.134964110821
19 1     -11.134944657931
20 1     -11.134943212802
21 1     -11.134952829087
22 1     -11.134945179276
23 1     -11.134947559117
24 1     -11.134940603068
25 1     -11.134963269783
26 1     -11.134957677770
27 1     -11.134955703125
28 1     -11.134949696852
29 1     -11.134952408102
30 1     -11.134953807036
