ITEM: TIMESTEP
0
ITEM: NUMBER OF ATOMS
30
ITEM: BOX BOUNDS xy xz yz pp pp pp
-2.5116029284999999e+00 5.0232058769999997e+00 -2.5116029284999999e+00
0.0000000000000000e+00 4.3502243130000000e+00 0.0000000000000000e+00
0.0000000000000000e+00 1.3522829828000001e+01 0.0000000000000000e+00
ITEM: ATOMS id type x y z fx fy fz
1 2       0.000000000000       0.000000000000       1.949170000000       0.000021548091      -0.000055335748      -0.077200380123
2 2       0.000000007000       2.900150000000       0.304640000000       0.000036258120      -0.000024765169       0.077246635759
3 2       2.511600003500       1.450070000000       2.558430000000       0.000064903330       0.000094631122       0.077390526690
4 2       0.000000007000       2.900150000000       4.202980000000      -0.000012461429       0.000016972743      -0.077185626267
5 2       2.511600003500       1.450070000000       6.456780000000       0.000046129674       0.000136273385      -0.077240466171
6 2       0.000000000000       0.000000000000       4.812240000000      -0.000003484135       0.000028152433       0.077405802521
7 2       0.000000007000       2.900150000000       7.066050000000      -0.000025996297      -0.000034652910       0.077252505891
8 2       0.000000000000       0.000000000000       8.710590000000      -0.000013305399      -0.000044894496      -0.077366584728
9 2       0.000000007000       2.900150000000      10.964400000000      -0.000014712060       0.000006180104      -0.077367914387
10 2       2.511600003500       1.450070000000       9.319850000000       0.000047118640       0.000108297974       0.077191365079
11 2       0.000000000000       0.000000000000      11.573660000000      -0.000013838161       0.000028543430       0.077230897296
12 2       2.511600003500       1.450070000000      13.218190000000       0.000077939690       0.000138032353      -0.077231510386
13 1      -0.761029996818       1.318150000000       3.380710000000      -0.052265050424       0.090316406786      -0.000084289442
14 1       1.522060000000       0.000000000000       3.380710000000       0.104407123747       0.000012415048      -0.000037878289
15 1       1.750570007318       3.032080000000       3.380710000000      -0.052147692779      -0.090429341517      -0.000076841742
16 1       3.272640000318       0.131930000000       1.126900000000       0.052126844780      -0.090381508342       0.000007051259
17 1       3.272640006682       2.768220000000       1.126900000000       0.052050174540       0.090379942189       0.000051842422
18 1       0.989540003500       1.450070000000       1.126900000000      -0.104309889890       0.000043604648       0.000005305217
19 1       1.750570006682       2.768220000000       7.888310000000      -0.052084827399       0.090405058763       0.000140639371
20 1       4.033670003500       1.450070000000       7.888310000000       0.104293256071       0.000008244473       0.000114011890
21 1       1.750570000318       0.131930000000       7.888310000000      -0.052221974319      -0.090371023300       0.000124720715
22 1       0.761030003818       1.582010000000       5.634520000000       0.052145078793      -0.090488189327      -0.000149469546
23 1       0.761030010182       4.218300000000       5.634520000000       0.052275509162       0.090286902186      -0.000168088931
24 1      -1.522059993000       2.900150000000       5.634520000000      -0.104438835126       0.000057372462      -0.000102450036
25 1      -0.761029989818       4.218300000000      12.395930000000      -0.052251108839       0.090282019820      -0.000063233232
26 1       1.522060007000       2.900150000000      12.395930000000       0.104406034715       0.000037358786      -0.000009759352
27 1      -0.761029996182       1.582010000000      12.395930000000      -0.052189319604      -0.090459814504      -0.000034082761
28 1      -1.750569992682       3.032080000000      10.142120000000       0.052157023027      -0.090404455499       0.000033342581
29 1       0.761030003182       1.318150000000      10.142120000000       0.052175314646       0.090333269306       0.000050951802
30 1       3.501140000000       0.000000000000      10.142120000000      -0.104337761164      -0.000025697202       0.000072976900
