ITEM: TIMESTEP
0
ITEM: NUMBER OF ATOMS
160
ITEM: BOX BOUNDS pp pp pp
0.0000000000000000e+00 8.3025822369999993e+00
0.0000000000000000e+00 8.3025822369999993e+00
0.0000000000000000e+00 2.4907746711000001e+01
ITEM: ATOMS id type x y z fx fy fz
1 2       1.204580000000       5.158560000000      21.894540000000      -0.008272820791       0.024430056005      -0.016933493278
2 2       5.154400000000       0.837140000000      13.558500000000      -0.216225911322      -0.025389567814      -0.025941371885
3 2       7.091090000000       7.339250000000       7.328150000000      -0.120618007500       0.161172686745      -0.056993486200
4 2       7.226880000000       7.068430000000      15.640810000000      -0.015940397647      -0.107870018259       0.089930254970
5 2       5.177810000000       5.210030000000       0.973540000000       0.041216827857       0.237389253371      -0.086135383989
6 2       3.003420000000       3.177450000000       7.153210000000      -0.036214800098      -0.186600703608       0.004618984580
7 2       0.940190000000       1.040770000000       1.090740000000      -0.112575972711      -0.028884461100       0.002325593124
8 2       5.124490000000       1.028070000000       5.198240000000       0.017181232202       0.065044445413       0.011311395066
9 2       3.153050000000       2.935100000000      15.511460000000      -0.083119056846       0.081654054379      -0.035421317908
10 2       5.339630000000       1.105280000000      21.728720000000      -0.113217502140       0.022335411515       0.041448387985
11 2       3.105410000000       7.186360000000      11.418910000000      -0.002157821984       0.005140254600      -0.022080531866
12 2       7.355120000000       3.167070000000      19.645210000000       0.161154802214      -0.102118441019      -0.104901067791
13 2       1.010000000000       5.051080000000      13.375410000000       0.075327092003       0.066960115442      -0.024110449173
14 2       7.267260000000       3.191280000000       3.176970000000      -0.050680220096      -0.260168778708       0.103271136590
15 2       5.055220000000       5.295800000000       9.288350000000      -0.143246376286       0.087731490156       0.035924224309
16 2       7.292320000000       7.372420000000      23.900950000000      -0.012730281926      -0.099966494694       0.025228799976
17 2       3.169120000000       7.390350000000      19.771860000000      -0.179752675192      -0.042617305135       0.044003945127
18 2       0.902590000000       1.069540000000       9.436960000000       0.167756029229       0.060597415733       0.007682724363
19 2       3.201340000000       7.360510000000       3.057050000000       0.085628650255       0.058674221166      -0.021110421282
20 2       1.164640000000       1.030460000000      17.671090000000      -0.051966897891       0.015019228199       0.047769076323
21 2       3.889900000000       0.192790000000       8.315620000000       0.168241629567      -0.140885983585       0.041869116385
22 2       6.089640000000       6.057240000000      12.428960000000       0.018578109869      -0.087017882060      -0.041994696626
23 2       2.143680000000       2.126550000000      20.771560000000       0.022927937281      -0.106430220472       0.029210855194
24 2       6.349080000000       6.237330000000      20.716240000000      -0.072403981301      -0.282423181054       0.079132641635
25 2       1.942110000000       6.339950000000       8.211210000000      -0.124699685149       0.045693861685      -0.049263600395
26 2       8.258060000000       2.043920000000       6.188220000000       0.220648730420       0.038273525655      -0.203456036152
27 2       1.977750000000       2.074810000000       4.190320000000      -0.163412485447      -0.020748390506       0.156828321267
28 2       0.042440000000       1.995190000000      14.484300000000       0.081106140010       0.360049525200       0.093914999807
29 2       0.169730000000       6.150620000000      18.638410000000      -0.031131341613      -0.124749970255      -0.173935328201
30 2       6.219400000000       0.057190000000       2.086350000000      -0.011638436219      -0.018803920574      -0.035350178925
31 2       6.046890000000       0.075630000000      10.441190000000      -0.032405329626       0.046611750971       0.100389540501
32 2       4.145260000000       2.180220000000      18.632390000000       0.014496301160       0.019075951423      -0.122195537028
33 2       6.357040000000       8.257390000000      18.682130000000       0.147452323139       0.102300577701      -0.129077992826
34 2       6.299100000000       2.044240000000      16.591790000000      -0.069778584355      -0.033276633831       0.310456172656
35 2       0.159120000000       2.054540000000      22.885840000000       0.028281890601       0.089920015669       0.311456635586
36 2       2.013110000000       8.086960000000      14.626850000000      -0.108990283687      -0.028620055854      -0.026993981712
37 2       3.982030000000       5.973140000000      14.538290000000       0.169533788436       0.084465125599       0.032462025034
38 2       6.206230000000       4.172480000000       6.244600000000      -0.092713844056      -0.009994264511      -0.290004478732
39 2       4.169080000000       6.333010000000      22.872120000000      -0.065789317605       0.099653628294       0.201745326491
40 2       0.099230000000       4.153050000000      16.606690000000       0.092111549988       0.054745246059       0.199849137628
41 2       2.071200000000       4.204100000000       2.073840000000      -0.017823361406      -0.017058101511       0.006631302294
42 2       4.109670000000       4.264690000000      20.705370000000       0.019648224456       0.022404392825       0.068553729400
43 2       4.113970000000       8.107200000000      16.669420000000       0.012728572958      -0.068898919729       0.056505755441
44 2       6.239580000000       4.207240000000      22.795470000000       0.097913383155      -0.161613715343       0.110931491078
45 2       8.238810000000       6.146970000000      10.362970000000      -0.039462278756       0.099633489093       0.340350335977
46 2       8.284830000000       8.240700000000      12.474240000000      -0.006796489606      -0.170692062231      -0.414427349817
47 2       0.042230000000       4.236650000000       0.031790000000      -0.144163715896       0.042290605041      -0.190239305947
48 2       6.169660000000       4.029540000000      14.503840000000       0.068994513329       0.228820824744      -0.038422126830
49 2       4.092990000000       4.160830000000       4.123240000000       0.139991952876      -0.060084341143       0.241170003694
50 2       2.111620000000       2.018740000000      12.378290000000       0.080488276468       0.164207571924      -0.134635082050
51 2       2.077820000000       4.071500000000      10.391250000000      -0.028234059623      -0.149305726156       0.137298045686
52 2       0.039740000000       6.369030000000       2.179810000000       0.245613503592       0.054051437318      -0.049263210226
53 2       0.201780000000       8.263450000000      20.859680000000       0.054911225018      -0.198921445127      -0.108383652721
54 2       4.087070000000       2.030080000000       1.965460000000      -0.235298391426      -0.048483065203      -0.027833695007
55 2       6.148730000000       2.042930000000      24.863260000000       0.009516694745      -0.006758659289      -0.316499457501
56 2       8.272060000000       4.110200000000       8.300510000000       0.127412701271      -0.160777262565      -0.024911106228
57 2       6.037010000000       2.150040000000       8.405600000000      -0.056750830291       0.121991437209      -0.016883424672
58 2       3.982260000000       6.368690000000       6.165610000000      -0.009043727064      -0.005471097959      -0.110666895167
59 2       6.284140000000       6.362220000000       4.202640000000      -0.010155283503      -0.005846507893       0.275790802227
60 2       2.160210000000       6.330600000000      24.871120000000       0.145278835799      -0.008763645168      -0.146955238804
61 2       5.128060000000       3.096910000000      11.458100000000      -0.084473705582      -0.081337962635       0.019839675063
62 2       3.144770000000       1.073100000000      23.848610000000       0.073130021705      -0.008517711992      -0.044938318189
63 2       3.152040000000       5.123470000000      17.638970000000      -0.070133897281       0.061512856561       0.009220926959
64 2       0.978980000000       7.325530000000       5.180990000000       0.000999058913       0.036535936066       0.024281411161
65 1       2.100140000000       2.131960000000       2.106320000000       0.201718615928      -0.055248713904      -0.142243499551
66 1       6.087100000000       6.181840000000       6.192210000000       0.113677541318      -0.107185657642      -0.134861125044
67 1       4.191400000000       8.250240000000       6.364260000000      -0.032968814612       0.148547761813       0.074682791370
68 1       4.267380000000       0.126980000000       2.042880000000      -0.014637191223      -0.049050115974       0.065545633397
69 1       8.190790000000       6.272350000000       4.093610000000       0.059478192154      -0.014812486408       0.100258262579
70 1       0.023690000000       2.134910000000       4.228860000000      -0.003041246592       0.033739276635      -0.000098020565
71 1       6.154340000000       4.139910000000       8.272320000000       0.045225170062      -0.209565344845       0.003766521104
72 1       1.920150000000       4.383530000000       0.203470000000      -0.064552250834       0.170622316328       0.015007507077
73 1       8.298170000000       4.308720000000       2.052340000000       0.063017554892       0.030692613521      -0.106062120333
74 1       8.077170000000       3.998230000000       6.432210000000      -0.110723818208      -0.143514323652       0.031708531770
75 1       4.239890000000       2.122810000000       0.045080000000      -0.066444369450       0.006312088370      -0.039821465168
76 1       3.979980000000       6.336940000000       8.173700000000      -0.006481265609       0.060631298353      -0.162347280275
77 1       2.095770000000       0.081440000000       4.130940000000       0.013125758696       0.068190172495      -0.053977642016
78 1       6.106150000000       8.255640000000       4.056620000000      -0.027905944519       0.097368005048      -0.026687571032
79 1       2.073040000000       6.301850000000       6.288210000000      -0.097822596049       0.008818551430      -0.084934890937
80 1       6.166810000000       2.110670000000       2.012990000000       0.069013498662       0.045948054171       0.041234259217
81 1       4.142280000000       4.091870000000       2.095320000000      -0.062732046319      -0.030058183522       0.086023667756
82 1       4.186340000000       4.291550000000       6.125310000000      -0.019902973516       0.009192810314      -0.110214735637
83 1       8.101190000000       2.084180000000       8.278420000000       0.023428743505       0.056505266712       0.078451159435
84 1       0.046510000000       6.247010000000       0.092730000000       0.031775795384      -0.096142737426      -0.099454722470
85 1       8.159720000000       0.066480000000       6.244190000000      -0.004052839979      -0.058628549965       0.012179936670
86 1       8.171520000000       8.276690000000       2.106380000000       0.011879391744       0.052953690988      -0.044254282520
87 1       4.204080000000       6.181450000000       4.187080000000      -0.145931360994      -0.017503361586       0.244277139842
88 1       4.084670000000       2.151490000000       4.066680000000      -0.014814590446       0.111267673308       0.078239060393
89 1       6.196000000000       2.150780000000       6.299770000000      -0.025963671657       0.029464721401      -0.058248253911
90 1       2.035530000000       6.273020000000       2.041440000000      -0.192820724771       0.049429074675       0.153250772088
91 1       2.216420000000       4.022590000000       3.942740000000       0.075945556688      -0.169830191990      -0.001861296890
92 1       6.103650000000       4.280470000000       4.229810000000      -0.035515675610       0.011466636315       0.033040248538
93 1       6.312830000000       0.147160000000       0.111930000000       0.045430960751      -0.072011862389       0.038335568472
94 1       2.001770000000       8.257330000000       8.425420000000       0.020242258617       0.071702622528      -0.028432299654
95 1       6.268270000000       6.295840000000       2.138840000000      -0.074477737819      -0.049475246192      -0.019815903960
96 1       1.909590000000       2.119430000000       6.124440000000       0.056167002295       0.023233850308       0.060545787879
97 1       2.024510000000       2.123760000000      10.439320000000      -0.044832690376      -0.073553754108      -0.021584432543
98 1       6.145150000000       6.069830000000      14.457990000000      -0.087775699131       0.015355990458      -0.050458254171
99 1       4.070260000000       8.109470000000      14.666300000000       0.034220941569      -0.017580164604       0.214950922616
100 1       4.162900000000       8.156980000000      10.257000000000      -0.147064269980       0.028906061619      -0.086294396081
101 1       8.162310000000       6.232550000000      12.368670000000       0.034190115672       0.063159201641      -0.152402631222
102 1       0.153420000000       1.808380000000      12.618430000000       0.176016769745      -0.105823834881       0.060398317163
103 1       6.468070000000       3.903820000000      16.391030000000       0.080485138116      -0.133388131129      -0.005112971261
104 1       2.004350000000       4.277630000000       8.320630000000      -0.023310798845      -0.010766347137      -0.082965693799
105 1       0.111920000000       4.278560000000      10.168960000000       0.193269351810       0.090799301885      -0.000418649299
106 1       8.297190000000       3.983770000000      14.549240000000      -0.056237766825      -0.204038033081      -0.118813488534
107 1       4.116860000000       2.085760000000       8.178070000000      -0.071642445422      -0.027825694208       0.010326254699
108 1       4.125540000000       6.215410000000      16.491310000000      -0.051509459492      -0.093514620999      -0.021226492359
109 1       2.002990000000       8.256950000000      12.520880000000      -0.067211980366      -0.032360597695      -0.036471888409
110 1       6.272910000000       8.136380000000      12.413580000000       0.095994295720       0.166970406120      -0.172872303559
111 1       2.075430000000       6.185220000000      14.402280000000       0.027766075659      -0.058934694986       0.006401967761
112 1       6.105830000000       1.990060000000      10.320480000000       0.002947092221       0.089467600570       0.090931047421
113 1       4.066610000000       4.204100000000      10.384750000000      -0.031400157393       0.036023799467      -0.054579749404
114 1       4.236550000000       4.080720000000      14.580750000000      -0.087399081836      -0.045653384329      -0.003622227972
115 1       0.022540000000       2.019330000000      16.506050000000      -0.024434442039       0.030601335143      -0.055676015229
116 1       8.249240000000       6.227360000000       8.333310000000       0.238520917193      -0.074466752507       0.008014924271
117 1       0.027630000000       8.197810000000      14.529700000000       0.241723759245      -0.003491999850       0.002759417229
118 1       8.118920000000       8.169740000000      10.468880000000      -0.003040326974       0.018518699563       0.083754601260
119 1       4.208560000000       6.271750000000      12.593260000000      -0.119710533927      -0.021361710680       0.022403753167
120 1       4.107350000000       1.926690000000      12.498670000000      -0.082187049686       0.000381024270       0.005851872711
121 1       6.313260000000       1.952300000000      14.561520000000       0.073455119796       0.028106105801       0.037746654416
122 1       1.966760000000       6.147570000000      10.305150000000      -0.004705044291       0.006895586028       0.066925656919
123 1       2.055820000000       3.973830000000      12.331730000000      -0.025972696498       0.015365640033       0.107136903575
124 1       6.192800000000       4.152020000000      12.563650000000      -0.010563430384      -0.084057403045      -0.117431586712
125 1       6.044370000000       0.107390000000       8.435710000000      -0.037512550232      -0.035875635999       0.168028370963
126 1       2.203700000000       0.025700000000      16.529890000000      -0.112940752857       0.031745940798       0.057950273715
127 1       6.231800000000       6.271720000000      10.424500000000       0.128644270871      -0.097198051685       0.071013904295
128 1       2.063590000000       1.850850000000      14.447550000000      -0.068053817517       0.007026727297       0.047729796415
129 1       2.247730000000       2.005300000000      18.796200000000      -0.083126741054      -0.032831090462       0.012452138238
130 1       6.276430000000       6.247980000000      22.741510000000      -0.016453862296       0.052577234090      -0.025025837690
131 1       4.288080000000       0.028450000000      22.794380000000       0.004353945320      -0.068817706612       0.034435107414
132 1       4.334090000000       0.075240000000      18.630110000000       0.033703667587      -0.117522447973      -0.161758224474
133 1       0.100990000000       6.281000000000      20.770580000000       0.085217622338       0.208925755958       0.038056505752
134 1       0.101710000000       2.055480000000      20.819190000000      -0.027516500653       0.046330854457      -0.006772323214
135 1       6.337990000000       4.124220000000      24.821160000000       0.054427383949      -0.002813116150       0.004766812546
136 1       2.085040000000       4.001080000000      16.584200000000      -0.004141847497      -0.049462170886       0.054104396655
137 1       0.089790000000       4.200060000000      18.558810000000      -0.052926127862      -0.002047794045       0.059643675320
138 1       8.260390000000       4.115050000000      22.923390000000      -0.001453388350       0.000164110674       0.117424747655
139 1       4.297430000000       1.914510000000      16.666100000000       0.089594435832       0.095831482583       0.116927413527
140 1       4.119720000000       6.263400000000      24.821570000000      -0.009887632573      -0.047003667709       0.048327428315
141 1       2.089530000000       0.148790000000      20.785450000000       0.033680115928       0.063400060363      -0.032837996671
142 1       6.428650000000       0.001290000000      20.686140000000       0.027955482175      -0.042633035936      -0.221904064395
143 1       2.219280000000       6.285570000000      22.935590000000      -0.099803059300      -0.007176636326      -0.149823152439
144 1       6.242370000000       1.976100000000      18.606710000000      -0.044072847821      -0.006452363668      -0.044500254801
145 1       4.214420000000       4.089520000000      18.776540000000       0.007722231195       0.041324634742      -0.116581128746
146 1       4.385540000000       4.401330000000      22.599280000000       0.103200593735       0.124947920812       0.007487771261
147 1       8.232880000000       2.219880000000      24.870550000000       0.155692376492       0.030157633374      -0.192855972909
148 1       0.063050000000       6.093630000000      16.684290000000      -0.015224283210       0.110806917564      -0.054628764305
149 1       8.248880000000       0.149810000000      22.754030000000      -0.030071064528      -0.085447554563       0.073432304892
150 1       0.061020000000       8.263530000000      18.771610000000      -0.122899116757      -0.028133392315      -0.080215329886
151 1       4.321840000000       6.292750000000      20.782920000000       0.044177343476       0.013001838042      -0.121923498527
152 1       4.213820000000       2.180860000000      20.661260000000       0.094963962378      -0.046591666531      -0.031222533382
153 1       6.361780000000       2.217070000000      22.878330000000      -0.107663373859       0.130046302199       0.150362150517
154 1       2.136480000000       6.263870000000      18.718750000000       0.061136118753       0.047432551292      -0.021764255007
155 1       2.195650000000       4.073340000000      20.795600000000       0.028649987854       0.015766004367       0.026494078428
156 1       6.296230000000       4.246120000000      20.776970000000      -0.251139978724       0.219392053401       0.091265342064
157 1       6.194160000000       0.009550000000      16.673700000000      -0.012967806391      -0.014563315902       0.078922784786
158 1       2.048880000000       0.015210000000       0.020260000000      -0.037445632471      -0.022545877421       0.037561059264
159 1       6.531050000000       6.383190000000      18.849870000000       0.114370001846       0.078707577014       0.081419911845
160 1       2.049790000000       2.094110000000      22.747600000000       0.012629991859      -0.026553308204      -0.028340444148
