ITEM: TIMESTEP
0
ITEM: NUMBER OF ATOMS
40
ITEM: BOX BOUNDS pp pp pp
0.0000000000000000e+00 8.7141098820000007e+00
0.0000000000000000e+00 5.0744997359999999e+00
0.0000000000000000e+00 9.3243536260000006e+00
ITEM: ATOMS id type x y z fx fy fz
1 2       1.369100000000       1.567790000000       8.275410000000       0.066573017792       0.057190824923       0.058603969271
2 2       3.095930000000       4.105030000000       8.275410000000      -0.066553628511       0.057343097485       0.058625955621
3 2       5.733790000000       0.901220000000       7.446730000000      -0.030709024833       0.041256275140      -0.102865992603
4 2       7.445350000000       3.438470000000       7.446730000000       0.030555066756       0.041277229673      -0.102848157196
5 2       4.687310000000       3.436250000000       5.559830000000       0.096571473029      -0.075927658102       0.177541617273
6 2       1.463570000000       3.485540000000       5.684460000000       0.061755467704      -0.200779060627       0.174048901905
7 2       3.001450000000       0.948290000000       5.684460000000      -0.061724965523      -0.200808027957       0.174044557167
8 2       8.491830000000       0.899000000000       5.559830000000      -0.096584560974      -0.075955646436       0.177622340989
9 2       1.376910000000       1.635850000000       2.784620000000      -0.032321312687      -0.041990928310      -0.103151411919
10 2       3.088120000000       4.173100000000       2.784620000000       0.032295241905      -0.042021469944      -0.103132262628
11 2       5.725630000000       0.969910000000       3.613180000000       0.063641692313      -0.055687978569       0.059052395300
12 2       7.453510000000       3.507160000000       3.613180000000      -0.063640229005      -0.055717225354       0.059009760918
13 2       4.135400000000       1.638550000000       0.897970000000      -0.095726629753       0.078220940931       0.178348131142
14 2       5.820430000000       4.126140000000       1.021860000000       0.065803314328       0.204741358280       0.178427554369
15 2       7.358710000000       1.588890000000       1.021860000000      -0.065718675195       0.204758499961       0.178413713951
16 2       0.329630000000       4.175810000000       0.897970000000       0.095704271866       0.078087240725       0.178358686097
17 1       7.278190000000       1.768770000000       4.401570000000       0.043855053368      -0.039975996216       0.046133906562
18 1       0.030430000000       0.768500000000       0.028210000000       0.035815291546      -0.095435075478      -0.028970017727
19 1       7.313270000000       0.102490000000       6.890460000000      -0.061468652652       0.037535427504      -0.040489149155
20 1       7.245820000000       4.942120000000       2.124080000000       0.104570907331       0.011105654898      -0.131504004343
21 1       5.900950000000       4.306020000000       4.401570000000      -0.043850823337      -0.039972269191       0.046117174295
22 1       7.382720000000       3.321130000000       9.310420000000      -0.049389680095      -0.124367321935      -0.082370506701
23 1       5.865860000000       2.639740000000       6.890460000000       0.061576746859       0.037569853047      -0.040418821101
24 1       5.933330000000       2.404870000000       2.124080000000      -0.104671643586       0.011135721258      -0.131451699393
25 1       1.439000000000       1.753290000000       4.648330000000       0.049987351937       0.123700356180      -0.081850636972
26 1       2.921640000000       0.768990000000       9.064080000000       0.042406862398       0.037897703398       0.044191959607
27 1       1.577170000000       0.131770000000       6.786840000000      -0.106344067687      -0.013989178153      -0.126515919246
28 1       1.508710000000       4.971720000000       2.228500000000       0.060926755416      -0.035647518057      -0.040393365624
29 1       0.077820000000       4.306420000000       4.690540000000      -0.034644389908       0.092707379129      -0.027760556855
30 1       1.543390000000       3.306240000000       9.064080000000      -0.042455994068       0.037970795293       0.044259175884
31 1       0.158720000000       2.418920000000       6.841320000000      -0.138183465755       0.035713636692      -0.075259449920
32 1       8.663230000000       2.655160000000       2.179370000000       0.136654946421      -0.036237226258      -0.075446859222
33 1       4.387210000000       1.769170000000       4.690540000000       0.034585988814       0.092698230988      -0.027720842404
34 1       5.796420000000       0.783880000000       9.310420000000       0.049383884440      -0.124375044627      -0.082347891077
35 1       4.306300000000       4.956170000000       6.841320000000       0.138232279561       0.035737003856      -0.075224668008
36 1       4.515910000000       0.117910000000       2.179370000000      -0.136623395205      -0.036220477145      -0.075463496272
37 1       3.026030000000       4.290540000000       4.648330000000      -0.049997601157       0.123700373841      -0.081849051985
38 1       4.434600000000       3.305750000000       0.028210000000      -0.035808901336      -0.095525904285      -0.028908011871
39 1       2.887840000000       2.669020000000       6.786840000000       0.106408188056      -0.014051095869      -0.126440049287
40 1       2.956320000000       2.434470000000       2.228500000000      -0.060886160569      -0.035662500689      -0.040416978840
