ITEM: TIMESTEP
0
ITEM: NUMBER OF ATOMS
20
ITEM: BOX BOUNDS xy xz yz pp pp pp
-1.4069456134080001e+00 1.2609972478089000e+01 0.0000000000000000e+00
0.0000000000000000e+00 3.1227495840000001e+00 -1.4069456134080001e+00
0.0000000000000000e+00 5.7811986212499997e+00 0.0000000000000000e+00
ITEM: ATOMS id type x y z fx fy fz
1 2       1.551524400910       1.561370000000       1.814807020204       0.013561343422       0.000037852771       0.047320526072
2 2       3.346518951985       0.000000000000       3.966386735973      -0.013554536607      -0.000037852987      -0.047327314145
3 2       0.010546721334       0.000000000000       4.594790973403      -0.027970348326      -0.000070603621      -0.030644038441
4 2       4.887496631562       1.561370000000       1.186402782773       0.027881536928       0.000070609672       0.030637270778
5 2       7.856501932900       0.000000000000       1.814806849457       0.013615602732      -0.000037854248       0.047361390260
6 2       9.651506200378       1.561370000000       3.966388929866      -0.013598034276       0.000037852415      -0.047358608507
7 2       6.315533969726       1.561370000000       4.594793167296      -0.028025760515       0.000070603512      -0.030679770892
8 2      11.192483879955       0.000000000000       1.186404976666       0.027889490308      -0.000070606660       0.030631755052
9 1       5.884005659562       0.000000000000       1.485483072351      -0.021915355213      -0.000085604460      -0.010203116416
10 1      -0.985974387709       1.561370000000       4.295718035589       0.022053464499       0.000085597198       0.010190074196
11 1       1.400799561257       0.000000000000       3.272958829451      -0.027680711044      -0.000020438781       0.025423252176
12 1       3.497243791639       1.561370000000       2.508234926726       0.027627816984       0.000020437158      -0.025421610739
13 1       3.023635105181       1.561370000000       5.147399559770      -0.002746069941       0.000039142630       0.010758972081
14 1       1.874408247715       0.000000000000       0.633794196407       0.002733614982      -0.000039142525      -0.010747034521
15 1      12.188995272594       1.561370000000       1.485475549841      -0.021889605722       0.000085610313      -0.010148961917
16 1       5.319012860684       0.000000000000       4.295720229481       0.022011030978      -0.000085601469       0.010195363936
17 1       7.705777093247       1.561370000000       3.272958658704      -0.027562987576       0.000020439294       0.025412106296
18 1       9.802231040031       0.000000000000       2.508237120618       0.027582426687      -0.000020438384      -0.025441441090
19 1       9.328622353574       0.000000000000       5.147401753662      -0.002782842775      -0.000039144146       0.010727868295
20 1       8.179385779705       1.561370000000       0.633794025660       0.002769924475       0.000039142319      -0.010686682474
