ITEM: TIMESTEP
0
ITEM: NUMBER OF ATOMS
20
ITEM: BOX BOUNDS xy xz yz pp pp pp
-1.4069456134080001e+00 1.2609972478089000e+01 0.0000000000000000e+00
0.0000000000000000e+00 3.1227495840000001e+00 -1.4069456134080001e+00
0.0000000000000000e+00 5.7811986212499997e+00 0.0000000000000000e+00
ITEM: ATOMS id type v_vir_xx v_vir_yy v_vir_zz v_vir_xy v_vir_xz v_vir_yz
1 2      -0.420834074774       0.066877837709      -2.564373495890      -0.000005884003       0.644493251056      -0.000006551962
2 2      -0.420871966970       0.066871357380      -2.564372236484      -0.000005881735       0.644469774086      -0.000006552180
3 2      -2.078547040838      -2.250178643012      -0.176708697651       0.000027370997       0.059676527155       0.000009885630
4 2      -2.078595818806      -2.250231406909      -0.176689490473       0.000027374994       0.059681339468       0.000009887747
5 2      -0.420777160544       0.066889383354      -2.564361069723       0.000005884899       0.644488341380       0.000006553247
6 2      -0.420818758831       0.066900369797      -2.564331683392       0.000005882324       0.644491467426       0.000006552540
7 2      -2.078557376520      -2.250181609824      -0.176781154193      -0.000027371483       0.059705912024      -0.000009884348
8 2      -2.078544926736      -2.250231262175      -0.176699688254      -0.000027376732       0.059663161465      -0.000009888517
9 1       1.753061635565       0.725247772980      -0.133025516358       0.000042211883       0.465306447531       0.000012902707
10 1       1.753116188051       0.725332610763      -0.133024705689       0.000042211992       0.465302338662       0.000012900128
11 1       1.698997443088       1.484797298483       2.981003209455       0.000014308434      -0.359904106271       0.000000003479
12 1       1.698926453297       1.484741340611       2.980961150314       0.000014306590      -0.359889316149       0.000000002259
13 1       0.834037841397       1.879343242858       1.771798729140       0.000007918175      -0.704492687128      -0.000011795272
14 1       0.834038401831       1.879358159428       1.771810447240       0.000007918035      -0.704509141139      -0.000011795143
15 1       1.753091401987       0.725266104735      -0.133028955906      -0.000042211206       0.465302819743      -0.000012900189
16 1       1.753085695387       0.725301061086      -0.133026729846      -0.000042211976       0.465309776059      -0.000012899102
17 1       1.698947682325       1.484781529052       2.980997867116      -0.000014300666      -0.359864271965       0.000000001276
18 1       1.698964535191       1.484761062969       2.980988210158      -0.000014302313      -0.359887407079       0.000000001896
19 1       0.834033714394       1.879344217356       1.771802869357      -0.000007918271      -0.704514666490       0.000011796874
20 1       0.834055850296       1.879360348584       1.771772392661      -0.000007924280      -0.704533793090       0.000011796128
