ITEM: TIMESTEP
0
ITEM: NUMBER OF ATOMS
20
ITEM: BOX BOUNDS xy xz yz pp pp pp
-1.3958235136890000e+00 1.2510288901369000e+01 0.0000000000000000e+00
0.0000000000000000e+00 3.0980638169999999e+00 -1.3958235136890000e+00
0.0000000000000000e+00 5.7354974455510002e+00 0.0000000000000000e+00
ITEM: ATOMS id type v_vir_xx v_vir_yy v_vir_zz v_vir_xy v_vir_xz v_vir_yz
1 2      -0.768697936154      -0.183136828346      -3.081068075419      -0.000002019642       0.499388758915      -0.000003155446
2 2      -0.768705626076      -0.183178278002      -3.081089634645      -0.000002019468       0.499395098008      -0.000003154985
3 2      -2.433709814096      -2.482205849328      -0.668955701447       0.000011670797       0.055272763567       0.000003598464
4 2      -2.433743684420      -2.482195941715      -0.668926190766       0.000011671083       0.055328226818       0.000003599415
5 2      -0.768705626076      -0.183178278002      -3.081089634660       0.000002019468       0.499395098011       0.000003154985
6 2      -0.768697936159      -0.183136828347      -3.081068075419       0.000002019642       0.499388758916       0.000003155446
7 2      -2.433743684421      -2.482195941710      -0.668926190766      -0.000011671083       0.055328226828      -0.000003599415
8 2      -2.433709814098      -2.482205849328      -0.668955701453      -0.000011670797       0.055272763572      -0.000003598464
9 1       1.556604628501       0.416730007774      -0.155992079485       0.000017200424       0.460574218859       0.000005370166
10 1       1.556613201479       0.416729744405      -0.156010332121       0.000017200781       0.460556576207       0.000005370730
11 1       1.585585412128       1.322967091452       2.877107357424       0.000005547411      -0.285660971192       0.000000719739
12 1       1.585528964789       1.322957556621       2.877088278050       0.000005547216      -0.285624855484       0.000000718722
13 1       0.638643957261       1.605038752700       1.658498255904       0.000003053890      -0.634634826053      -0.000004120766
14 1       0.638636518822       1.605050023887       1.658433411253       0.000003054902      -0.634687549246      -0.000004122518
15 1       1.556613201480       0.416729744403      -0.156010332123      -0.000017200781       0.460556576208      -0.000005370730
16 1       1.556604628505       0.416730007782      -0.155992079485      -0.000017200424       0.460574218860      -0.000005370166
17 1       1.585528964793       1.322957556628       2.877088278053      -0.000005547216      -0.285624855480      -0.000000718722
18 1       1.585585412124       1.322967091451       2.877107357422      -0.000005547411      -0.285660971189      -0.000000719739
19 1       0.638636518825       1.605050023888       1.658433411251      -0.000003054902      -0.634687549250       0.000004122518
20 1       0.638643957265       1.605038752701       1.658498255917      -0.000003053890      -0.634634826055       0.000004120766
