ITEM: TIMESTEP
0
ITEM: NUMBER OF ATOMS
160
ITEM: BOX BOUNDS pp pp pp
0.0000000000000000e+00 8.3154572540000000e+00
0.0000000000000000e+00 8.3154572540000000e+00
0.0000000000000000e+00 2.4946371761999998e+01
ITEM: ATOMS id type v_vir_xx v_vir_yy v_vir_zz v_vir_xy v_vir_xz v_vir_yz
1 2      -3.683745345432      -1.554669023099      -1.636660452272      -0.010581264369      -0.183785892753      -0.081562239061
2 2      -4.029438580595      -3.134377644473      -3.605904266164      -0.250263828416       0.519729365727       0.069878462647
3 2      -2.909298922061      -4.008550817156      -3.385687367162       0.305628443251       0.472645438586      -0.038440168516
4 2      -1.338979821424      -3.430395882122      -3.444647560064       0.359554798810      -0.233933961853       0.529183015381
5 2      -3.568609202561      -1.550713931043      -3.383556238590       0.150504530177      -0.033486544153       0.040973978870
6 2      -3.669015477954      -1.657609105418      -2.169410766143       0.243315382654       0.007712527981      -0.414962522863
7 2      -3.019647982660      -4.235660728263      -1.719804187517      -0.616432685465       0.031631077343      -0.037424982642
8 2      -1.140848120875      -4.550113420130      -3.519859544383       0.078597517342      -0.243932326854      -0.296543910869
9 2      -4.372148995607      -3.156599724189      -1.658964203816      -0.601863856663       0.090553316704      -0.347627345823
10 2      -3.170686625894      -4.020706115999      -3.472137628152       0.313195298875       0.082809673726      -0.292724574311
11 2      -4.626349971513      -1.446511981337      -3.696554210636      -0.035060130892       0.356832596892      -0.217948362726
12 2      -1.360048677778      -3.445330438911      -3.421885746028      -0.015118230613       0.512560387424       0.477204115625
13 2      -1.762873085670      -3.632619647956      -2.363240741406      -0.360137161449       0.688968486569      -0.102913008820
14 2      -3.472681038556      -1.533794457925      -3.454245213240       0.178494664699      -0.036954611967       0.015329417462
15 2      -4.090816443893      -2.878339031201      -3.348688568819       0.324303398914       0.175946768795       0.374586220938
16 2      -0.865081645793      -4.396642342456      -3.758374252319      -0.069810838292      -0.284149638293      -0.050400863139
17 2      -3.969698784208      -3.240295583545      -1.797232072678       0.532620836768       0.034774358091       0.180708009920
18 2      -1.614715579861      -3.705845991824      -2.135567068742       0.073533521278      -0.297484872333      -0.308327921402
19 2      -3.065682796133      -4.237141056869      -1.700935240518      -0.615483657902       0.075462496147      -0.010562151081
20 2      -4.361779476147      -0.915619873422      -3.742406758687       0.151900169766       0.286079086823       0.586922205868
21 2      -2.569941954158      -2.664137351711      -0.142593550718      -0.680846730106       0.135339263196       0.115323458148
22 2      -2.095165990715      -2.231910794453      -4.078382657945      -0.634653204144      -0.224552897061       0.480632482275
23 2      -3.743197242031      -0.641386182689      -0.573973611596      -0.313585780308       0.508636206799       0.504630074260
24 2      -2.863567542085      -3.656377412493      -3.236301797551      -0.795522988075       1.357073845801       1.352840868627
25 2      -3.707173137398      -1.468404977846      -2.010217400725      -0.487595186848       0.507407109283       1.033667537550
26 2      -2.394702981109      -0.030246632149      -2.160937429447       0.404537058408       0.293572520318      -0.727207832070
27 2      -2.166085459345       0.386525956063      -2.468296727911      -0.425705703709       0.354495125964       0.260696778640
28 2      -3.429698459997      -3.235878622910      -3.375547295275       0.820946184210       1.395756646005      -1.436039448384
29 2      -0.166467742598      -2.156535361300      -2.014974893091       0.285779098209       0.529609282143      -0.526576779836
30 2      -0.702555734446      -3.793962675025      -0.552013953425       0.854767671597       0.306772466994       0.721620397253
31 2      -1.801819046386      -2.205406883751      -4.010457111411       0.356969246594       0.655617447615       0.314890960203
32 2      -1.814995387736      -1.825957474112      -4.236859808186       0.463628580506      -0.096959028720       0.144411996655
33 2      -3.233751694878      -3.250125636842      -3.875307814761       0.792657103241      -0.121982465729       1.174320468231
34 2      -3.459373226405      -3.089361739160      -4.145646962491      -0.808800285129       0.295054764298       1.366674461573
35 2      -2.306788912072      -1.828786962630      -3.637225488410       0.426367541291       0.587654382748       0.575047216250
36 2      -3.586200414853      -1.881469993845      -2.098451245801       1.197667850234      -0.423867271573       0.086409740309
37 2      -2.319454348741      -2.663009119639      -0.421259168299       0.107396568042       0.885662389078       0.270694505422
38 2      -2.930281136377      -3.356959203164      -3.567188089337       0.693477868628      -0.652831670715       0.206029430228
39 2      -2.246941776362       0.247145483275      -2.510100053996       0.373460696502       0.085589489629      -0.678834819609
40 2       0.076045355874      -2.428914534865      -2.526567725395      -0.369051749269      -0.263963322108      -0.121573690915
41 2      -3.296618397344      -3.035775361147      -2.484430678715       0.188837364096      -1.517860097806       1.454273057374
42 2      -1.884595197237      -3.317627211646      -1.020152406210       0.207869316449      -1.073696050122      -0.585853218912
43 2      -1.817768793685      -2.068119942209      -4.125779361943      -0.388073338160       0.640438639422      -0.112582947394
44 2      -3.056892794004      -3.570887052022      -3.698309812482       0.796574908685      -0.747487443792       0.289694793877
45 2      -3.477284371930      -3.026219646124      -3.814902309176       0.739857816906       0.424587679796      -0.892864261595
46 2      -3.328416468633      -3.186085135106      -3.350561947444      -0.641915646342      -0.036999749968      -0.869878005183
47 2      -3.051456034621      -3.435462360722      -3.511405783864      -0.757548152785      -0.871595733796      -0.100736790547
48 2      -1.753771839484      -3.343546019422      -1.286234260938      -0.185951695888      -1.076086334553       0.775563896685
49 2      -3.032108587144      -3.468403002411      -3.655689055182      -0.807293797712      -0.941530958060       0.021736400015
50 2      -0.139879041466      -2.366216243527      -2.430117612148      -0.341790065402       0.746950143525       0.125215055821
51 2       0.122829153416      -2.394987537678      -2.355628170517       0.303982008594      -0.354863841012      -0.058148115611
52 2      -3.337539581457      -1.969991410805      -1.845211359922       0.349470948784       0.534545840310      -0.833376732389
53 2      -2.268073006344      -3.385424759033      -1.868974043528      -1.008095063390       0.191014552716      -0.655628978165
54 2      -3.328902038499      -1.965203838349      -1.788439387264       0.391112689937       0.624153570770      -0.810199780250
55 2      -2.043248574238      -1.867129241946      -3.594656943446      -0.423601701158       0.319375199782      -0.096278317005
56 2      -3.157628099368      -3.168476793184      -2.465416128153      -0.171294921730      -1.423460677232      -1.647438119550
57 2      -1.390891045507      -3.683336161267      -2.004665121106      -0.482624682730       1.131267720420       0.320047751482
58 2      -2.295993547101      -1.883892108949      -4.097846234061       0.459797602530       0.530820913544       0.506043900453
59 2      -2.047895124300      -1.872554291488      -3.653868764294      -0.480093574892       0.486231831397      -0.058112074995
60 2      -2.138942411492       0.302953635265      -2.608132830196      -0.424096837700       0.526855342345       0.211969061517
61 2      -0.127867074857      -1.818126810078      -1.643107216983      -0.024521275978       0.144077046792       0.939057435636
62 2      -1.703205614760      -0.402707051739      -1.734434585475      -0.050529977339       1.033918503465       0.143077459392
63 2      -0.353766899675      -1.660708981779      -1.638388596385       0.157432284007       0.128784368605      -1.109129149924
64 2      -1.720438556922      -0.253315581537      -1.667803375253      -0.020275416547       1.042546092476      -0.001257529821
65 1       2.283070651062       1.841838640516       1.682968738019       0.302150262137       0.134897444254      -0.002963055232
66 1       1.959749105648       1.924290452524       2.419985589561       0.246126046105       0.226372896482       0.228719663344
67 1      -0.171250264599       1.128854555448       1.800471445063      -0.270860042402      -0.213647439080      -0.558327817732
68 1       0.889512494491       1.139792075653      -0.416150917579       0.349112370459      -0.061209561726       0.023256201327
69 1       1.404304951643       0.400332035892       1.369566126472      -0.146608800046       0.364385447623      -0.238817234876
70 1       1.274800460748       0.029595711308       1.057480847549      -0.148938816553       0.368359696475      -0.253455672338
71 1       1.849636589142       1.897562835378       1.273828717038      -0.469136025351      -0.106267922687       0.312459328285
72 1       0.822317457447       1.170779230083       0.953389948871      -0.075211101062       0.026162448435       0.024874593288
73 1       2.015353419077       1.776468257015       1.442971221630       0.429741470735      -0.403945106786      -0.307414048365
74 1       0.618762097743       1.208445941741       0.976139314148       0.217519724130       0.096994068539      -0.089942887880
75 1       1.504849648201       0.416740887416       1.418316000067      -0.176342882140       0.469775975524      -0.233595709445
76 1       2.028869123430       1.842540606965       1.641429812349      -0.565204713131       0.525667895646      -0.630748858497
77 1       0.628017513903       1.329047281979       0.279500671563      -0.005528321732      -0.248851617857      -0.025456047930
78 1      -0.422532287751       1.236647031176       1.308883140755       0.054841828889      -0.262423864508       0.444062022636
79 1       1.483960666619       0.495657429701       1.461343848569       0.193308570859       0.409763536888       0.138357730312
80 1       1.994260775377       1.917544031595       1.983268009712       0.594621069287       0.587692978036       0.713666522923
81 1       2.019937287577       1.797728669951       1.440365686228       0.428004942832      -0.424028757218      -0.314126330738
82 1       2.096011681288       1.890658588643       1.587122901891       0.240652179911      -0.326895112552      -0.255407741977
83 1       2.118559198106       1.954481881522       1.797714639783      -0.325651353574       0.118800526975      -0.279838493883
84 1       1.962123790127       1.720270757334       2.642011801981      -0.027307018075       0.309178681143      -0.458779942535
85 1       0.417318375845       1.098750811745       0.614467401070      -0.063505672922      -0.370533292433       0.108469872012
86 1       0.932345386912       1.191910224463      -0.297576823553       0.355539505667      -0.025033127043      -0.011766705002
87 1       2.120278274222       2.178920936503       2.247627598105      -0.275332755005       0.306895299310      -0.230119584352
88 1       1.944806421798       1.772107512769       2.658233273401      -0.036086438045       0.325906816476      -0.545693480195
89 1       1.666395593754       2.026808021783       2.505741767942      -0.025035974834       0.336040933797       0.548919724861
90 1       2.334812354617       1.809843172591       1.672194646970       0.300226628030       0.121677509426      -0.014616570352
91 1       0.706876668079       1.130921786492       0.927302983991      -0.084553997977       0.046185381826      -0.013425325727
92 1       1.829490273194       1.873421062986       2.078678771000      -0.153695536623      -0.364604980732       0.410366709833
93 1      -0.494461588992       1.220841082303       1.318347829660       0.107379429033      -0.133862283263       0.393421670441
94 1       1.059918550845       1.006664371794      -0.006767378462      -0.323028737065      -0.302635888856      -0.212122465025
95 1       1.992583563014       1.955626734353       1.982507579024       0.619321571254       0.587066580375       0.736107442904
96 1       1.424307907294       0.472441886430       1.084084212426       0.130934780797       0.204483088660       0.090697259327
97 1       0.386979171130       1.376699593327       0.960813138893       0.152068801701       0.267765050936       0.226132283843
98 1       1.794802683710       1.816252128681       1.705140689537       0.504686693622       0.625400141894       0.550978889517
99 1       2.134665066788       1.722375076177       1.508129050533       0.502953895512      -0.742157150804      -0.358599967407
100 1       1.001592054527      -0.128372798687       1.732307150716      -0.155721128376      -0.534746687213      -0.333395416099
101 1       2.024864377248       2.239977629078       1.905695928125      -0.294946145643       0.315799383935      -0.468809902341
102 1       1.161218485451       0.587046541382       0.510222928926      -0.299030888441       0.219444544115      -0.123781470681
103 1       0.969036715686       0.553739174208       1.100876835966      -0.008448206798      -0.154993835880      -0.005333197627
104 1       1.946306214020       2.014735120575       1.769944416990      -0.218822300133      -0.223966566142       0.100271841820
105 1       1.313563842614       0.573780514142       1.033241606649       0.144156997415      -0.097869691997       0.077124300457
106 1       1.589860391339       2.152548131704       1.780874448693       0.303906397135      -0.085577434116      -0.301299305599
107 1       1.046679246240       1.206280678660       0.077803466903      -0.323275176880       0.048873800031      -0.375950692574
108 1       0.507749222742       1.345256369151       1.853351608724      -0.136084520687       0.164507746487      -0.473175868345
109 1       1.975138475749       1.698365161176       2.510710385190       0.071556488123      -0.389899326693       0.234351463376
110 1       1.852100555755       1.806090093569       2.317556231046      -0.157827447278      -0.120883486017       0.054146702813
111 1       1.119262480667       1.079597547237       0.154647364203       0.301188839084       0.097223890571       0.300580819844
112 1       0.409208263389       1.588362681108       1.442986136914       0.223681616360       0.220581698135       0.447865297660
113 1       1.150820025942       0.455475647144       0.809575894398      -0.113503131921       0.203973315252      -0.380499889226
114 1       1.112150695203       1.162299576167      -0.090445920621       0.246976511863       0.339102048404      -0.189527712130
115 1       1.964957647852       1.927520136062       2.485603951992      -0.102315455574       0.510698493114      -0.349673971322
116 1       1.957365596414       1.977631736829       1.435593624206      -0.524595844487       0.333159078553      -0.165607361995
117 1       1.690276838461       1.794585364459       1.721360989487       0.555905670030      -0.384597209561      -0.330806951629
118 1       1.974299849315       2.153649174738       1.736408537036       0.160654501934      -0.236341089210      -0.348634774711
119 1       1.008349954974      -0.217855442155       1.743734957365       0.238944672651       0.584344570771      -0.323241495957
120 1       1.323686050142       0.621677167837       0.516756493228      -0.008023235553       0.038674293192      -0.381107979908
121 1       2.001387473871       2.087269111542       1.588315469234       0.532625110666       0.299502155383       0.266079544700
122 1       2.129835942860       1.725877034364       2.561261225064      -0.067576752445       0.598283960481       0.326151668876
123 1       0.311153921105       1.426262290513       0.859345404999      -0.113283501825      -0.082835476399       0.236747068385
124 1       0.561620819740       1.580831602519       1.867757386750      -0.118238858266      -0.053347370402       0.299462929770
125 1       1.751546354556       2.041896822139       1.529381247798      -0.544142365691      -0.597964308325       0.513875335863
126 1       1.263415114769      -0.373365404437       1.302435994432       0.110208187655      -0.411202803788       0.145574607801
127 1       1.900000372499       2.037933943494       2.535163855379       0.209817836009       0.207287157895       0.173749282613
128 1       2.089399846420       1.903515574383       1.839937684870       0.407990327828       0.173034804063       0.100699089175
129 1       1.254466007589      -0.539384689593       1.441352822800      -0.111754669098       0.449686601292       0.108602907455
130 1       1.826189941188       2.016216816725       2.442599639853       0.095295666616       0.221706017501       0.544731763880
131 1       0.399100109959       1.434393310853       0.631807012678      -0.019807358844      -0.422382976819       0.025734700569
132 1       2.139235687801       2.118236607660       2.064172539937       0.165152505203      -0.114740577450      -0.005248339198
133 1       1.718651763809       2.013458299263       2.107947933337      -0.355907176038       0.356024737842      -0.236886876202
134 1       1.775053234709       2.075562959662       2.054925941938      -0.586064414377       0.487404410723      -0.823471784305
135 1       1.804992234301       1.863617704140       2.171946684100      -0.205499112632      -0.359281158142       0.435446225196
136 1       1.361240980603       0.569843853649       0.487100670734      -0.037982067479       0.184428700311       0.450916416649
137 1      -0.028496986635       1.257574547698       1.092642086236       0.168812218540      -0.145557938187      -0.260066446246
138 1       2.032084522103       1.984119601071       1.879944259361       0.295259238776      -0.353214713151      -0.386025639476
139 1       2.131790111142       2.093020909705       2.190220171857      -0.211590282223       0.269777887652      -0.045511366685
140 1       1.342907539313       0.045559792784       1.190754216548      -0.168665067365       0.323866336899      -0.228609331397
141 1       1.066275737367       1.112844907609      -0.179660326615      -0.357732889379      -0.229715706642      -0.213108522762
142 1       1.648447393227       2.118694484940       1.416512553669      -0.460532542224      -0.271876726844       0.394806363627
143 1       1.495356069662       0.239893856063       0.860202829222       0.201328652907       0.316843169182       0.155201814470
144 1       2.074477069956       2.008428753379       2.304151960710       0.308834496004       0.489134159366       0.443242395067
145 1       0.471788692279       1.502147452470       2.011119940326       0.205567937078      -0.076059429195      -0.248671945065
146 1       0.373392137267       1.070411791056       1.107172599877       0.052028146794       0.067614133315      -0.031466740595
147 1       2.248655789178       2.180749601140       2.312971471496      -0.287414473508       0.309609354601      -0.251492190246
148 1       0.127887559466       1.321568864762       1.142328381458      -0.099530933125       0.250503988751      -0.233629952853
149 1      -0.444263075064       1.275323498092       1.097327113256      -0.174270984962      -0.130284555292      -0.457568340351
150 1       1.682424756452       1.968978604921       2.456670709751       0.052918459293      -0.352114465179      -0.244561919866
151 1       2.272003631861       2.009388512211       1.804177175650      -0.187079336844       0.027604360545      -0.028736966763
152 1       2.076014152452       2.074648118678       1.714322583387      -0.552355531668       0.596326747817      -0.370797188865
153 1       1.917346878516       1.791712528968       2.311437885541       0.189640619324       0.208104581753       0.288767037643
154 1       1.326209896271       0.728674468744       0.305988712868       0.122060630205       0.087571168983       0.455890151615
155 1       1.189135966548       0.842784766087      -0.367136271883      -0.293724606678      -0.063320883790       0.102637368616
156 1       1.713873966084       1.858188599928       1.457207603737      -0.473489918034      -0.212041696929       0.533915772784
157 1       1.961607334708       1.935835386467       2.191206228995      -0.195438076238      -0.358688920336       0.319445281253
158 1       0.649037249670       1.335441121718       0.408643351325      -0.053874441572      -0.352430931341      -0.010398545088
159 1       1.355305725667       0.760847783684       0.610338734878       0.143816644584       0.162133673204       0.179586867533
160 1       1.549038847122       0.558378878170       1.771187061797       0.179560306349       0.242317014489       0.302273063740
