ITEM: TIMESTEP
0
ITEM: NUMBER OF ATOMS
160
ITEM: BOX BOUNDS pp pp pp
0.0000000000000000e+00 8.3154572540000000e+00
0.0000000000000000e+00 8.3154572540000000e+00
0.0000000000000000e+00 2.4946371761999998e+01
ITEM: ATOMS id type x y z fx fy fz
1 2       1.206560000000       5.166110000000      21.929010000000      -0.316394684359       0.042582422927      -0.030112197432
2 2       5.162410000000       0.837660000000      13.580080000000      -0.015596235808       0.073806894576      -0.187733681673
3 2       7.102570000000       7.351550000000       7.338790000000      -0.054564264133      -0.194849054150      -0.188715851066
4 2       7.238080000000       7.079210000000      15.665320000000      -0.108333723064       0.473720723204       0.172908305634
5 2       5.185340000000       5.218860000000       0.975860000000       0.249592610462      -0.038464209897      -0.147574878369
6 2       3.008160000000       3.181900000000       7.164530000000       0.232162190511      -0.050182653394       0.136258846096
7 2       0.942270000000       1.042550000000       1.091660000000      -0.005929740769       0.001631538829      -0.065956952236
8 2       5.133610000000       1.028850000000       5.206240000000       0.011355154413       0.002201218191      -0.173298729078
9 2       3.158850000000       2.939080000000      15.536380000000      -0.069526239830       0.061286321385      -0.000145760450
10 2       5.347760000000       1.106670000000      21.763200000000       0.050476487687      -0.081303598377       0.210929920724
11 2       3.111340000000       7.196940000000      11.436710000000      -0.004097057936       0.115175726728      -0.149192545027
12 2       7.365850000000       3.173070000000      19.675430000000      -0.120012199873      -0.394843301132      -0.008942457298
13 2       1.011980000000       5.059240000000      13.395860000000      -0.044229504703       0.280074231343       0.121168667824
14 2       7.277820000000       3.197050000000       3.182380000000      -0.288923530506       0.005222142699       0.142079367195
15 2       5.063150000000       5.303230000000       9.302480000000       0.206067046784      -0.026878171626       0.200567053835
16 2       7.304500000000       7.386080000000      23.937010000000       0.063548482764      -0.069630774995       0.016130179659
17 2       3.173930000000       7.401360000000      19.801110000000       0.007455825523      -0.085492103812      -0.036838516328
18 2       0.904500000000       1.070590000000       9.451010000000       0.033412183922      -0.242055911763      -0.132145392924
19 2       3.206320000000       7.372890000000       3.063090000000      -0.035284791494      -0.010409054779       0.022228587528
20 2       1.166510000000       1.032050000000      17.698990000000      -0.099036762203      -0.119079441713      -0.093057293568
21 2       3.896750000000       0.192960000000       8.329830000000       0.076917723446      -0.012795486588       0.029886529613
22 2       6.098450000000       6.067730000000      12.449250000000       0.294434143781       0.075440563881      -0.197928734885
23 2       2.147120000000       2.128630000000      20.804330000000      -0.023300109525      -0.193130456271       0.021557086511
24 2       6.359610000000       6.248240000000      20.750560000000       0.000367368844       0.070260007055       0.358437185066
25 2       1.945990000000       6.349760000000       8.223750000000      -0.100746031714      -0.102384498762      -0.038312564140
26 2       8.270960000000       2.047120000000       6.198130000000      -0.210311302930      -0.123894983059       0.066609823513
27 2       1.980690000000       2.077780000000       4.195990000000       0.081642536296      -0.065458979808      -0.165840527218
28 2       0.043150000000       1.997730000000      14.508590000000       0.019669136573      -0.015795625021       0.389824260610
29 2       0.170300000000       6.160440000000      18.666330000000      -0.035637100672       0.313047790438       0.237101480338
30 2       6.229260000000       0.057230000000       2.089210000000       0.009605407108      -0.020384817446      -0.047694759949
31 2       6.056030000000       0.075920000000      10.457360000000       0.405449039710      -0.183979557450       0.178078812765
32 2       4.151470000000       2.182380000000      18.662380000000       0.270230992243      -0.049972688968      -0.225020109335
33 2       6.365970000000       8.269840000000      18.711210000000      -0.250933416154       0.424740956822      -0.184217960361
34 2       6.308740000000       2.045520000000      16.617170000000      -0.071052693291      -0.539320331200       0.251427812256
35 2       0.158300000000       2.057540000000      22.920740000000      -0.123274918114       0.214060179724       0.111992708389
36 2       2.016490000000       8.099540000000      14.648570000000      -0.139227666143       0.086476671450       0.117141372013
37 2       3.988050000000       5.982250000000      14.561210000000       0.137818323861       0.054408306581       0.076231852134
38 2       6.213530000000       4.178970000000       6.255750000000      -0.342552367367       0.175790938800      -0.279896042646
39 2       4.175470000000       6.343120000000      22.907040000000       0.311241922991       0.374031563296      -0.102276475579
40 2       0.099490000000       4.158610000000      16.631860000000       0.122124631539      -0.290660585176      -0.067787960254
41 2       2.073650000000       4.211190000000       2.077800000000      -0.007444852227      -0.004898452851       0.003963201172
42 2       4.117000000000       4.271590000000      20.737240000000       0.183460723222       0.005917985557      -0.287810536001
43 2       4.117040000000       8.120470000000      16.695150000000       0.418774420103       0.178515552661       0.117811622024
44 2       6.250840000000       4.214530000000      22.830980000000       0.411685148315      -0.114097172868       0.277411437256
45 2       8.251440000000       6.157960000000      10.378420000000      -0.159262065815       0.302466757250       0.219695650457
46 2       8.297830000000       8.251910000000      12.493850000000      -0.167851646042      -0.214244220833      -0.169861148400
47 2       0.040970000000       4.243970000000       0.032370000000      -0.432901673289      -0.038629518064      -0.267841483035
48 2       6.178770000000       4.034420000000      14.525390000000       0.066376549826       0.054729859102      -0.311556289955
49 2       4.100490000000       4.167060000000       4.129010000000       0.412952657612       0.102810823165       0.220198210974
50 2       2.114820000000       2.020390000000      12.396790000000       0.187208726946      -0.144629247528       0.228362591782
51 2       2.080650000000       4.079760000000      10.407410000000       0.099357582254       0.258762664354      -0.146998444198
52 2       0.039650000000       6.380010000000       2.182200000000       0.062090854163      -0.132744950801      -0.066426782769
53 2       0.201820000000       8.276880000000      20.890460000000      -0.194553214873      -0.112717913183       0.029575151347
54 2       4.093790000000       2.032480000000       1.968760000000      -0.050298238234       0.149264436198       0.047348615076
55 2       6.159470000000       2.046530000000      24.902020000000       0.042808034616       0.236397316816      -0.178219141968
56 2       8.286130000000       4.115980000000       8.312900000000       0.013767092865       0.013002888973      -0.020004517622
57 2       6.045650000000       2.153110000000       8.417760000000       0.114937421439       0.105207781672      -0.028875580850
58 2       3.989380000000       6.379460000000       6.175520000000       0.104009621488      -0.391800413393      -0.179703853848
59 2       6.293300000000       6.371990000000       4.208840000000      -0.017172421328      -0.315860017729       0.140110289172
60 2       2.163260000000       6.341140000000      24.909920000000      -0.182328003204       0.090694126977       0.153946963397
61 2       5.135200000000       3.101480000000      11.475220000000      -0.306120358681       0.010304464949       0.099102999711
62 2       3.149900000000       1.075050000000      23.886590000000       0.098569096876      -0.459626671692       0.013667004888
63 2       3.157460000000       5.130830000000      17.665400000000      -0.212889730106      -0.057596470615      -0.017988400108
64 2       0.980090000000       7.337170000000       5.188550000000      -0.016958333391       0.304472197936      -0.032068951846
65 1       2.104000000000       2.134460000000       2.109140000000       0.149701425349       0.174691235494       0.149357127043
66 1       6.097560000000       6.191230000000       6.201310000000       0.098964883618      -0.017022601476      -0.092963756821
67 1       4.201220000000       8.262310000000       6.375400000000       0.077067670265       0.091333654969      -0.063252761297
68 1       4.274840000000       0.127650000000       2.049670000000       0.006095172024       0.021963524109       0.102852597071
69 1       8.201760000000       6.286380000000       4.098240000000       0.315378730940      -0.165728315689       0.248645186220
70 1       0.024870000000       2.142730000000       4.236290000000       0.172750470927       0.081594576750       0.236579257483
71 1       6.162350000000       4.145400000000       8.285230000000       0.276173240134      -0.178870719585      -0.132988976411
72 1       1.919190000000       4.393790000000       0.207980000000      -0.027290761430      -0.007662837001       0.039748872155
73 1       8.310220000000       4.316210000000       2.056390000000       0.260094532515       0.065505294349      -0.150373194062
74 1       8.085090000000       4.001540000000       6.445690000000      -0.024817518230      -0.050183229079       0.091546782808
75 1       4.248220000000       2.122320000000       0.047020000000      -0.312933356159       0.214236624966      -0.204164246250
76 1       3.986230000000       6.345480000000       8.185990000000      -0.091483230398       0.065237141166      -0.070227901659
77 1       2.097530000000       0.081420000000       4.137150000000       0.048963169539       0.130749684580       0.002757188342
78 1       6.113260000000       8.266860000000       4.061980000000      -0.090526354370       0.151836909516       0.024082973431
79 1       2.077660000000       6.316350000000       6.298610000000      -0.244853628353      -0.130504222704      -0.263164947425
80 1       6.176840000000       2.113400000000       2.016250000000      -0.074580315452      -0.096557868199      -0.094303485625
81 1       4.149030000000       4.097880000000       2.098250000000      -0.259741979945      -0.061224672774       0.167655553199
82 1       4.192010000000       4.298410000000       6.134190000000      -0.194641779615      -0.146891945053       0.062929788693
83 1       8.114530000000       2.087160000000       8.292030000000       0.005585947030       0.295820111289      -0.228384230139
84 1       0.046040000000       6.257490000000       0.091380000000       0.230619503770      -0.106760863029      -0.100268480850
85 1       8.172680000000       0.066280000000       6.253260000000       0.087341995827       0.116251581680      -0.061750996684
86 1       8.183610000000       8.289140000000       2.105690000000       0.011069128288      -0.005899662360      -0.109869120736
87 1       4.209840000000       6.190500000000       4.194380000000      -0.163731631428       0.076901701414       0.076496274048
88 1       4.091400000000       2.154310000000       4.074180000000      -0.203105415906       0.052274824546       0.064999518924
89 1       6.206110000000       2.153530000000       6.308770000000       0.188140962049       0.029654317069      -0.022319888089
90 1       2.038150000000       6.284200000000       2.045570000000      -0.152088887989      -0.168791818728      -0.111966660633
91 1       2.223250000000       4.025970000000       3.945590000000       0.044594374117       0.039089777860      -0.016124203422
92 1       6.113200000000       4.287540000000       4.237480000000       0.088921945403       0.020959958871      -0.009842518602
93 1       6.325440000000       0.149240000000       0.112150000000       0.092302788552      -0.065656596747       0.015395168738
94 1       2.007490000000       8.269190000000       8.442540000000       0.142791619951       0.203444091743       0.135307506065
95 1       6.277630000000       6.306590000000       2.141960000000       0.075383768971       0.081008252474       0.118912743216
96 1       1.911270000000       2.126350000000       6.132680000000      -0.047193360717      -0.040389760610       0.031741873713
97 1       2.022750000000       2.129000000000      10.456390000000       0.076359567942       0.036385034799       0.082866462384
98 1       6.155440000000       6.078690000000      14.480540000000      -0.157105822805      -0.208011259268      -0.169974256417
99 1       4.076070000000       8.122460000000      14.689720000000       0.009172054395      -0.170059661681       0.095657453298
100 1       4.170860000000       8.166830000000      10.272560000000      -0.142392402646      -0.035236391630       0.082299616228
101 1       8.174170000000       6.241650000000      12.386860000000       0.039993999123      -0.138992091551      -0.031397427974
102 1       0.156840000000       1.806830000000      12.642380000000      -0.007961669169      -0.041166718162      -0.099226659818
103 1       6.480500000000       3.905150000000      16.412510000000      -0.005214498730       0.098307239048       0.023223226867
104 1       2.007970000000       4.284460000000       8.332270000000      -0.263997379542      -0.035020893188       0.193624063534
105 1       0.113970000000       4.289350000000      10.180700000000       0.001141178380      -0.006440749508      -0.039089557359
106 1       8.311230000000       3.989550000000      14.571410000000      -0.174842283003      -0.045518237283       0.147431674014
107 1       4.123730000000       2.087560000000       8.187920000000      -0.231218800334      -0.137516208213      -0.180879585118
108 1       4.128500000000       6.226870000000      16.516100000000       0.062092728079      -0.095515865199       0.270549381475
109 1       2.006580000000       8.269130000000      12.539230000000      -0.015447341888       0.142903101537      -0.123192731582
110 1       6.282750000000       8.149560000000      12.432480000000      -0.027684976368       0.143453044705      -0.008659575692
111 1       2.079910000000       6.195190000000      14.421600000000       0.121070869793      -0.291459246478      -0.204982959946
112 1       6.111520000000       1.992230000000      10.334710000000       0.180402735408       0.247927447331       0.208259249142
113 1       4.073310000000       4.210170000000      10.400440000000      -0.125625324996      -0.106055563110       0.151808651685
114 1       4.243890000000       4.087990000000      14.607290000000       0.006064410313       0.143914796532       0.086313264905
115 1       0.023080000000       2.021830000000      16.531650000000      -0.023829368681       0.233333239509       0.097428441257
116 1       8.263540000000       6.238840000000       8.345740000000       0.156925820485      -0.274619709111       0.127944126017
117 1       0.028880000000       8.208420000000      14.552610000000       0.162320884480       0.141913244863      -0.174329174376
118 1       8.131420000000       8.183060000000      10.486140000000       0.180456644546       0.161516322712      -0.030225965588
119 1       4.215970000000       6.284090000000      12.614330000000      -0.064408701033       0.051479209215       0.022570746805
120 1       4.115030000000       1.929280000000      12.518140000000      -0.117598373387      -0.005351204934      -0.062044245555
121 1       6.323470000000       1.954170000000      14.583870000000       0.123366127859       0.276010096397       0.058131265177
122 1       1.970340000000       6.156900000000      10.321950000000      -0.053214324864      -0.140807271024       0.037435065616
123 1       2.055370000000       3.978580000000      12.349420000000       0.009192282433      -0.035157892659      -0.061460785322
124 1       6.198090000000       4.159920000000      12.583650000000       0.065338168652      -0.242851324736      -0.251455543586
125 1       6.054880000000       0.107410000000       8.449170000000      -0.073534929400       0.107684788891       0.063057621715
126 1       2.206550000000       0.028570000000      16.554070000000      -0.121191750097       0.064042305251       0.065181342343
127 1       6.241760000000       6.280770000000      10.440910000000       0.005109335228      -0.145039902420       0.122908435927
128 1       2.068160000000       1.854280000000      14.469990000000      -0.260447241514       0.131139103668      -0.211061231619
129 1       2.252320000000       2.005880000000      18.826230000000      -0.036926648203      -0.098167608544       0.046073663668
130 1       6.286280000000       6.259360000000      22.777050000000      -0.189810127245      -0.065288932200       0.072586543240
131 1       4.293510000000       0.029790000000      22.829560000000       0.043121669307      -0.165207159648       0.085296570503
132 1       4.340600000000       0.073950000000      18.657490000000      -0.102458220483      -0.292763782655       0.082637508270
133 1       0.102940000000       6.291400000000      20.803650000000      -0.091680661004       0.101556027583      -0.240695835413
134 1       0.102440000000       2.059750000000      20.851230000000       0.200437683250       0.077886152197       0.109918707171
135 1       6.347870000000       4.131350000000      24.859900000000      -0.115470615669      -0.020229148978       0.015005377700
136 1       2.089380000000       4.006890000000      16.609920000000      -0.047911990581       0.016136029021       0.068895711764
137 1       0.085810000000       4.207800000000      18.585950000000      -0.075333088644       0.199999443166      -0.210346186420
138 1       8.273260000000       4.121390000000      22.959830000000       0.131608821459       0.078638015164      -0.016465230145
139 1       4.304670000000       1.917200000000      16.693130000000      -0.035287229676       0.274910995841      -0.087717198622
140 1       4.124640000000       6.269870000000      24.859230000000      -0.191297490269      -0.116384876007      -0.198102818999
141 1       2.091310000000       0.148740000000      20.813440000000       0.055351697639       0.023827995935      -0.090974511057
142 1       6.438380000000       0.002530000000      20.718250000000      -0.018852001484      -0.262455964596      -0.141317258596
143 1       2.224290000000       6.291240000000      22.972830000000      -0.025823845948      -0.005981926032       0.000844221492
144 1       6.251400000000       1.978990000000      18.635410000000      -0.035765143244       0.117116426633      -0.021518163118
145 1       4.216990000000       4.093800000000      18.806400000000       0.128622872294       0.248057561998      -0.331233097669
146 1       4.396920000000       4.411840000000      22.631310000000      -0.097531914901      -0.029414995115       0.050756847359
147 1       8.246920000000       2.224150000000      24.908010000000       0.157319528791      -0.047712797080      -0.066312221607
148 1       0.058960000000       6.100620000000      16.711300000000       0.103715600539      -0.070243239417       0.143519097457
149 1       8.258420000000       0.151490000000      22.786640000000      -0.088776898672      -0.041732036512       0.076666498118
150 1       0.060450000000       8.276620000000      18.799560000000      -0.002077966020      -0.226145282436      -0.159946924828
151 1       4.328020000000       6.303140000000      20.814410000000       0.078192081688      -0.242916988815       0.101512035431
152 1       4.220400000000       2.183830000000      20.693620000000      -0.150415387146       0.229216772211      -0.045508640097
153 1       6.371000000000       2.221730000000      22.914670000000      -0.093048356529       0.007565182681       0.053342360968
154 1       2.140730000000       6.272280000000      18.746700000000       0.021274498541       0.084844975269       0.032923840939
155 1       2.201110000000       4.077730000000      20.832900000000       0.110937336139      -0.083779979056       0.080936471845
156 1       6.307280000000       4.253880000000      20.809140000000      -0.274061768919       0.079661317041       0.147648374965
157 1       6.203480000000       0.008470000000      16.700360000000       0.071623196098      -0.016255454482       0.019442843683
158 1       2.052510000000       0.016260000000       0.020040000000      -0.054775368961      -0.070736177702      -0.014947345330
159 1       6.544570000000       6.395540000000      18.883830000000       0.014726019522      -0.026417897477      -0.031780096012
160 1       2.051100000000       2.092370000000      22.782290000000       0.199304729988       0.088126699298       0.161396353916
