160
Config_type=bulk_gamma_phase Weight=1.0 Lattice="8.315457254 0.000000000 0.000000000 0.000000000 8.315457254 0.000000000 0.000000000 0.000000000 24.946371762" Energy=-1360.14515620 Virial="34.85637 0.44135 -19.81839 0.44135 34.24912 -2.07447 -19.81839 -2.07447 39.46686" pbc="T T T" Properties=species:S:1:pos:R:3:forces:R:3
Ga	      1.20656      5.16611     21.92901         0.014045     -0.015185     -0.007583
Ga	      5.16241      0.83766     13.58008        -0.003116      0.004676     -0.003266
Ga	      7.10257      7.35155      7.33879        -0.001351     -0.006451     -0.011140
Ga	      7.23808      7.07921     15.66532        -0.013653      0.003918      0.003316
Ga	      5.18534      5.21886      0.97586        -0.016915     -0.016197      0.003925
Ga	      3.00816      3.18190      7.16453         0.003057      0.005120      0.015162
Ga	      0.94227      1.04255      1.09166        -0.020876      0.005845     -0.015520
Ga	      5.13361      1.02885      5.20624         0.006144     -0.012837     -0.017217
Ga	      3.15885      2.93908     15.53638        -0.010741      0.000392     -0.013730
Ga	      5.34776      1.10667     21.76320         0.008838     -0.007484     -0.014621
Ga	      3.11134      7.19694     11.43671         0.005556      0.001348     -0.018402
Ga	      7.36585      3.17307     19.67543         0.002747      0.006365     -0.012272
Ga	      1.01198      5.05924     13.39586         0.007344     -0.011290      0.000453
Ga	      7.27782      3.19705      3.18238         0.013274     -0.011959      0.023699
Ga	      5.06315      5.30323      9.30248         0.009866     -0.012622      0.010942
Ga	      7.30450      7.38608     23.93701         0.023185     -0.015550      0.003509
Ga	      3.17393      7.40136     19.80111        -0.017835      0.013537      0.015664
Ga	      0.90450      1.07059      9.45101        -0.006462     -0.008692     -0.007956
Ga	      3.20632      7.37289      3.06309        -0.001525      0.002780      0.014227
Ga	      1.16651      1.03205     17.69899         0.013421     -0.010281      0.001130
Ga	      3.89675      0.19296      8.32983         0.000970      0.009898     -0.002665
Ga	      6.09845      6.06773     12.44925        -0.010958     -0.001105      0.029995
Ga	      2.14712      2.12863     20.80433        -0.003111     -0.001692      0.012839
Ga	      6.35961      6.24824     20.75056         0.015268      0.008361      0.002189
Ga	      1.94599      6.34976      8.22375        -0.011160      0.021278     -0.012791
Ga	      8.27096      2.04712      6.19813         0.018286     -0.010118      0.017824
Ga	      1.98069      2.07778      4.19599        -0.019231     -0.004206      0.003540
Ga	      0.04315      1.99773     14.50859         0.014562     -0.001206     -0.023799
Ga	      0.17030      6.16044     18.66633        -0.001375      0.000308      0.020149
Ga	      6.22926      0.05723      2.08921        -0.016507     -0.022746      0.014093
Ga	      6.05603      0.07592     10.45736        -0.007650      0.003089     -0.001705
Ga	      4.15147      2.18238     18.66238        -0.012581     -0.000997      0.017929
Ga	      6.36597      8.26984     18.71121         0.021529      0.009356     -0.003061
Ga	      6.30874      2.04552     16.61717        -0.004572     -0.010971      0.004390
Ga	      0.15830      2.05754     22.92074        -0.003943     -0.004426     -0.003265
Ga	      2.01649      8.09954     14.64857         0.005433     -0.000868      0.001308
Ga	      3.98805      5.98225     14.56121         0.010004     -0.014434      0.005998
Ga	      6.21353      4.17897      6.25575         0.006468      0.000412     -0.015198
Ga	      4.17547      6.34312     22.90704         0.023073      0.023377      0.000765
Ga	      0.09949      4.15861     16.63186         0.004176     -0.013600     -0.000638
Ga	      2.07365      4.21119      2.07780        -0.006833     -0.018153      0.001633
Ga	      4.11700      4.27159     20.73724        -0.007686      0.007631      0.017136
Ga	      4.11704      8.12047     16.69515         0.006222     -0.007859     -0.011050
Ga	      6.25084      4.21453     22.83098        -0.004574     -0.010646     -0.025780
Ga	      8.25144      6.15796     10.37842         0.017632      0.009902     -0.007015
Ga	      8.29783      8.25191     12.49385        -0.003161      0.019627     -0.025439
Ga	      0.04097      4.24397      0.03237        -0.006599      0.002805     -0.001535
Ga	      6.17877      4.03442     14.52539         0.006885      0.013863     -0.004069
Ga	      4.10049      4.16706      4.12901         0.018835      0.000109     -0.029962
Ga	      2.11482      2.02039     12.39679         0.006302      0.015796      0.000255
Ga	      2.08065      4.07976     10.40741        -0.000200     -0.003977     -0.006838
Ga	      0.03965      6.38001      2.18220        -0.007300     -0.002296     -0.020092
Ga	      0.20182      8.27688     20.89046         0.003860      0.002178     -0.017136
Ga	      4.09379      2.03248      1.96876         0.017946      0.021273     -0.004498
Ga	      6.15947      2.04653     24.90202        -0.001089     -0.015004      0.006509
Ga	      8.28613      4.11598      8.31290        -0.002047      0.004431      0.001239
Ga	      6.04565      2.15311      8.41776        -0.008811     -0.008000     -0.008865
Ga	      3.98938      6.37946      6.17552         0.001853      0.022090      0.011445
Ga	      6.29330      6.37199      4.20884        -0.011544      0.008736     -0.011393
Ga	      2.16326      6.34114     24.90992        -0.008698      0.018933      0.011852
Ga	      5.13520      3.10148     11.47522         0.015822     -0.032858      0.009770
Ga	      3.14990      1.07505     23.88659         0.005449      0.021989     -0.013519
Ga	      3.15746      5.13083     17.66540        -0.005928     -0.009659      0.011770
Ga	      0.98009      7.33717      5.18855         0.003578     -0.011633      0.008065
O	      2.10400      2.13446      2.10914         0.000699     -0.002546     -0.001077
O	      6.09756      6.19123      6.20131        -0.003068     -0.002969     -0.003037
O	      4.20122      8.26231      6.37540        -0.005370      0.003628      0.003622
O	      4.27484      0.12765      2.04967        -0.003677      0.005835      0.003215
O	      8.20176      6.28638      4.09824        -0.003090     -0.004370     -0.007487
O	      0.02487      2.14273      4.23629         0.001649     -0.001862     -0.000693
O	      6.16235      4.14540      8.28523        -0.011201      0.000255     -0.005840
O	      1.91919      4.39379      0.20798         0.003365      0.011579     -0.001331
O	      8.31022      4.31621      2.05639        -0.000472      0.002599     -0.010934
O	      8.08509      4.00154      6.44569        -0.009233     -0.008800     -0.000832
O	      4.24822      2.12232      0.04702         0.003084      0.001630      0.010810
O	      3.98623      6.34548      8.18599        -0.003949     -0.005651     -0.001050
O	      2.09753      0.08142      4.13715         0.000536     -0.016315     -0.003992
O	      6.11326      8.26686      4.06198        -0.015089      0.000667      0.014388
O	      2.07766      6.31635      6.29861         0.000885      0.003408      0.005323
O	      6.17684      2.11340      2.01625         0.003507     -0.000323      0.004429
O	      4.14903      4.09788      2.09825         0.001255      0.009650      0.001775
O	      4.19201      4.29841      6.13419        -0.004032      0.004636      0.005683
O	      8.11453      2.08716      8.29203         0.002923      0.002085     -0.008454
O	      0.04604      6.25749      0.09138        -0.001968      0.004737     -0.008548
O	      8.17268      0.06628      6.25326         0.000820     -0.011840     -0.008150
O	      8.18361      8.28914      2.10569         0.005102     -0.004963     -0.001819
O	      4.20984      6.19050      4.19438        -0.006236      0.004004      0.009660
O	      4.09140      2.15431      4.07418        -0.009985      0.001111     -0.001742
O	      6.20611      2.15353      6.30877        -0.000566     -0.009473      0.003124
O	      2.03815      6.28420      2.04557         0.010259      0.002421      0.000535
O	      2.22325      4.02597      3.94559         0.001338     -0.004888      0.004910
O	      6.11320      4.28754      4.23748        -0.008271      0.002850     -0.001261
O	      6.32544      0.14924      0.11215         0.008833      0.014256     -0.004962
O	      2.00749      8.26919      8.44254        -0.003517     -0.003097      0.001191
O	      6.27763      6.30659      2.14196        -0.007121      0.000849     -0.004484
O	      1.91127      2.12635      6.13268        -0.004573      0.005782     -0.000210
O	      2.02275      2.12900     10.45639        -0.009293     -0.005214      0.006321
O	      6.15544      6.07869     14.48054         0.007794     -0.003849      0.002081
O	      4.07607      8.12246     14.68972         0.002469      0.009105      0.005666
O	      4.17086      8.16683     10.27256         0.008820      0.003522     -0.006629
O	      8.17417      6.24165     12.38686        -0.001953      0.000550      0.001589
O	      0.15684      1.80683     12.64238         0.007058     -0.008272      0.009484
O	      6.48050      3.90515     16.41251         0.017685     -0.007620      0.001638
O	      2.00797      4.28446      8.33227         0.005035     -0.006330      0.003360
O	      0.11397      4.28935     10.18070         0.009097      0.007461     -0.007039
O	      8.31123      3.98955     14.57141         0.007719     -0.003475     -0.007487
O	      4.12373      2.08756      8.18792        -0.013198      0.001222     -0.007158
O	      4.12850      6.22687     16.51610        -0.006677     -0.003578     -0.006837
O	      2.00658      8.26913     12.53923        -0.000275     -0.008602      0.003215
O	      6.28275      8.14956     12.43248        -0.001970     -0.000525     -0.001398
O	      2.07991      6.19519     14.42160         0.003252     -0.014813     -0.009708
O	      6.11152      1.99223     10.33471        -0.014187      0.004451     -0.000862
O	      4.07331      4.21017     10.40044         0.008170      0.007903      0.002497
O	      4.24389      4.08799     14.60729        -0.001104      0.000771      0.005199
O	      0.02308      2.02183     16.53165         0.011641     -0.000076      0.003655
O	      8.26354      6.23884      8.34574        -0.005108      0.005093     -0.002112
O	      0.02888      8.20842     14.55261        -0.001505     -0.002997      0.001334
O	      8.13142      8.18306     10.48614         0.004818      0.006853     -0.010715
O	      4.21597      6.28409     12.61433         0.002857     -0.005415      0.003711
O	      4.11503      1.92928     12.51814         0.004296     -0.002157     -0.000950
O	      6.32347      1.95417     14.58387        -0.006729     -0.007578      0.010688
O	      1.97034      6.15690     10.32195         0.004901      0.002093     -0.000564
O	      2.05537      3.97858     12.34942        -0.014036     -0.003613      0.003304
O	      6.19809      4.15992     12.58365        -0.012519      0.002676     -0.001829
O	      6.05488      0.10741      8.44917         0.007469     -0.003305     -0.000734
O	      2.20655      0.02857     16.55407        -0.011053      0.010090      0.004465
O	      6.24176      6.28077     10.44091        -0.009089     -0.000650      0.005567
O	      2.06816      1.85428     14.46999         0.001866     -0.001240      0.009785
O	      2.25232      2.00588     18.82623         0.001908     -0.003746     -0.007596
O	      6.28628      6.25936     22.77705         0.004869      0.006265      0.001610
O	      4.29351      0.02979     22.82956        -0.009268      0.020902      0.013239
O	      4.34060      0.07395     18.65749         0.000684     -0.008874      0.000621
O	      0.10294      6.29140     20.80365         0.001670      0.003112      0.001723
O	      0.10244      2.05975     20.85123        -0.007039     -0.003596     -0.003864
O	      6.34787      4.13135     24.85990        -0.000070      0.001450      0.006771
O	      2.08938      4.00689     16.60992         0.006660     -0.003052      0.005578
O	      0.08581      4.20780     18.58595        -0.007200      0.004970      0.009707
O	      8.27326      4.12139     22.95983        -0.006908     -0.007652     -0.007862
O	      4.30467      1.91720     16.69313        -0.004298      0.003998     -0.005505
O	      4.12464      6.26987     24.85923         0.002646     -0.004177     -0.001414
O	      2.09131      0.14874     20.81344        -0.001336     -0.005879     -0.003904
O	      6.43838      0.00253     20.71825        -0.001835      0.004325      0.005653
O	      2.22429      6.29124     22.97283        -0.005239      0.005549     -0.003570
O	      6.25140      1.97899     18.63541         0.003374      0.004661      0.002259
O	      4.21699      4.09380     18.80640         0.011833     -0.013886     -0.000068
O	      4.39692      4.41184     22.63131         0.002556      0.006760      0.000596
O	      8.24692      2.22415     24.90801         0.008894      0.007025      0.004200
O	      0.05896      6.10062     16.71130        -0.007070     -0.003840     -0.001958
O	      8.25842      0.15149     22.78664        -0.006169      0.010446     -0.005004
O	      0.06045      8.27662     18.79956         0.005721      0.000516     -0.003911
O	      4.32802      6.30314     20.81441         0.001898      0.004353      0.007050
O	      4.22040      2.18383     20.69362         0.000523     -0.004811      0.007685
O	      6.37100      2.22173     22.91467         0.000393      0.011613      0.004845
O	      2.14073      6.27228     18.74670         0.002580     -0.000377     -0.000108
O	      2.20111      4.07773     20.83290         0.010630      0.005903      0.006292
O	      6.30728      4.25388     20.80914         0.003665      0.000827      0.011051
O	      6.20348      0.00847     16.70036        -0.011751      0.004670     -0.001465
O	      2.05251      0.01626      0.02004        -0.009179      0.008782      0.009216
O	      6.54457      6.39554     18.88383        -0.001361      0.007111      0.006226
O	      2.05110      2.09237     22.78229        -0.014467      0.004867     -0.001095
