30
Config_type=bulk_alpha_phase Weight=1.0 Lattice="5.073843033 0.000000000 0.000000000 -2.536921517 4.394077381 0.000000000 0.000000000 0.000000000 13.659148677" Energy=-255.14649660 Virial="-2.22274 -0.00001 -0.00003 -0.00001 -2.22277 0.00003 -0.00003 0.00003 -1.83983" pbc="T T T" Properties=species:S:1:pos:R:3:forces:R:3
Ga	      0.00000      0.00000      1.96882         0.000041     -0.000058     -0.025486
Ga	      0.00000      2.92938      0.30771         0.000030      0.000066      0.025451
Ga	      2.53692      1.46469      2.58422         0.000061      0.000009      0.025677
Ga	      0.00000      2.92938      4.24535         0.000006      0.000057     -0.025501
Ga	      2.53692      1.46469      6.52187         0.000002      0.000008     -0.025514
Ga	      0.00000      0.00000      4.86075        -0.000020     -0.000049      0.025651
Ga	      0.00000      2.92938      7.13728        -0.000007      0.000045      0.025483
Ga	      0.00000      0.00000      8.79839        -0.000010     -0.000045     -0.025559
Ga	      0.00000      2.92938     11.07492        -0.000007      0.000073     -0.025551
Ga	      2.53692      1.46469      9.41380         0.000024      0.000000      0.025506
Ga	      0.00000      0.00000     11.69033        -0.000022     -0.000050      0.025522
Ga	      2.53692      1.46469     13.35144         0.000010      0.000022     -0.025529
O	     -0.76870      1.33143      3.41479        -0.005498      0.009399     -0.000077
O	      1.53741      0.00000      3.41479         0.010844     -0.000018     -0.000046
O	      1.76822      3.06264      3.41479        -0.005421     -0.009402     -0.000051
O	      3.30563      0.13326      1.13826         0.005402     -0.009459      0.000031
O	      3.30563      2.79612      1.13826         0.005338      0.009503      0.000076
O	      0.99952      1.46469      1.13826        -0.010898     -0.000045      0.000050
O	      1.76822      2.79612      7.96783        -0.005418      0.009484      0.000130
O	      4.07433      1.46469      7.96783         0.010853     -0.000039      0.000126
O	      1.76822      0.13326      7.96783        -0.005483     -0.009444      0.000133
O	      0.76870      1.59795      5.69132         0.005422     -0.009436     -0.000115
O	      0.76870      4.26082      5.69132         0.005517      0.009322     -0.000142
O	     -1.53741      2.92938      5.69132        -0.010848      0.000106     -0.000145
O	     -0.76870      4.26082     12.52089        -0.005539      0.009315     -0.000094
O	      1.53740      2.92938     12.52089         0.010924      0.000086     -0.000084
O	     -0.76871      1.59795     12.52089        -0.005316     -0.009426     -0.000084
O	      3.30562      3.06264     10.24436         0.005478     -0.009359      0.000065
O	      0.76870      1.33143     10.24436         0.005453      0.009412      0.000033
O	      3.53644      0.00000     10.24436        -0.010918     -0.000077      0.000043
