ITEM: TIMESTEP
0
ITEM: NUMBER OF ATOMS
80
ITEM: BOX BOUNDS pp pp pp
0.0000000000000000e+00 9.3168351089999994e+00
0.0000000000000000e+00 9.3168351089999994e+00
0.0000000000000000e+00 9.3168351089999994e+00
ITEM: ATOMS id type x y z fx fy fz
1 2       6.987630000000       2.329210000000       2.329210000000      -0.000078882806      -0.000021239140      -0.000051395122
2 2       6.987630000000       4.327650000000       4.658420000000      -0.000068811905      -0.013770319059      -0.000051373721
3 2       0.000000000000       6.987630000000       0.330770000000      -0.000011747202      -0.000046310533       0.013751595544
4 2       0.000000000000       2.329210000000       4.327650000000       0.000016366113      -0.000033073589      -0.013763242224
5 2       0.330770000000       0.000000000000       6.987630000000       0.013751595544      -0.000011747202      -0.000046310533
6 2       0.330770000000       4.658420000000       2.329210000000       0.013716482170      -0.000023255651      -0.000010575588
7 2       2.329210000000       4.327650000000       0.000000000000      -0.000033073589      -0.013763242224       0.000016366113
8 2       2.329210000000       6.987630000000       2.329210000000      -0.000051395122      -0.000078882806      -0.000021239140
9 2       2.329210000000       2.329210000000       2.329210000000      -0.000040116033      -0.000040116033      -0.000040116033
10 2       2.329210000000       2.329210000000       6.987630000000      -0.000021239140      -0.000051395122      -0.000078882806
11 2       2.329210000000       0.330770000000       4.658420000000      -0.000010575588       0.013716482170      -0.000023255651
12 2       4.327650000000       0.000000000000       2.329210000000      -0.013763242224       0.000016366113      -0.000033073589
13 2       4.327650000000       4.658420000000       6.987630000000      -0.013770319059      -0.000051373721      -0.000068811905
14 2       4.658420000000       2.329210000000       0.330770000000      -0.000023255651      -0.000010575588       0.013716482170
15 2       4.658420000000       6.987630000000       4.327650000000      -0.000051373721      -0.000068811905      -0.013770319059
16 2       6.987630000000       0.330770000000       0.000000000000      -0.000046310533       0.013751595544      -0.000011747202
17 2       2.329210000000       6.987630000000       6.987630000000      -0.000041272933      -0.000090989382      -0.000092148850
18 2       2.329210000000       8.986060000000       0.000000000000      -0.000012612384      -0.013671343321       0.000011665185
19 2       4.658420000000       2.329210000000       4.989190000000      -0.000027953955      -0.000035109735       0.013661017109
20 2       4.658420000000       6.987630000000       8.986060000000       0.000000156727      -0.000044269598      -0.013678417823
21 2       4.989190000000       4.658420000000       2.329210000000       0.013661017109      -0.000027953955      -0.000035109735
22 2       4.989190000000       0.000000000000       6.987630000000       0.013696127437       0.000039778664      -0.000066767585
23 2       6.987630000000       8.986060000000       4.658420000000      -0.000044269598      -0.013678417823       0.000000156727
24 2       6.987630000000       2.329210000000       6.987630000000      -0.000092148850      -0.000041272933      -0.000090989382
25 2       6.987630000000       6.987630000000       6.987630000000      -0.000048725676      -0.000048725676      -0.000048725676
26 2       6.987630000000       6.987630000000       2.329210000000      -0.000090989382      -0.000092148850      -0.000041272933
27 2       6.987630000000       4.989190000000       0.000000000000      -0.000066767585       0.013696127437       0.000039778664
28 2       8.986060000000       4.658420000000       6.987630000000      -0.013678417823       0.000000156727      -0.000044269598
29 2       8.986060000000       0.000000000000       2.329210000000      -0.013671343321       0.000011665185      -0.000012612384
30 2       0.000000000000       6.987630000000       4.989190000000       0.000039778664      -0.000066767585       0.013696127437
31 2       0.000000000000       2.329210000000       8.986060000000       0.000011665185      -0.000012612384      -0.013671343321
32 2       2.329210000000       4.989190000000       4.658420000000      -0.000035109735       0.013661017109      -0.000027953955
33 1       8.237120000000       5.682590000000       1.469140000000       0.015393324693      -0.022968015471      -0.038501837237
34 1       8.237120000000       3.634240000000       3.189280000000       0.015422181441       0.023021056194       0.038464803572
35 1       8.292660000000       1.469140000000       1.079710000000       0.022986632108      -0.038501829465      -0.015362887335
36 1       8.292660000000       3.189280000000       5.738130000000       0.022973938663       0.038482618900      -0.015351374307
37 1       1.024170000000       3.189280000000       1.079710000000      -0.022956918502       0.038481824014      -0.015346424980
38 1       1.024170000000       1.469140000000       5.738130000000      -0.022936505282      -0.038514712067      -0.015328441318
39 1       1.079710000000       8.292660000000       1.469140000000      -0.015362887335       0.022986632108      -0.038501829465
40 1       1.079710000000       1.024170000000       3.189280000000      -0.015346424980      -0.022956918502       0.038481824014
41 1       1.469140000000       5.738130000000       1.024170000000      -0.038514712067      -0.015328441318      -0.022936505282
42 1       1.469140000000       3.578700000000       3.634240000000      -0.038483264192       0.015469413882       0.023024510048
43 1       1.469140000000       1.079710000000       8.292660000000      -0.038501829465      -0.015362887335       0.022986632108
44 1       1.469140000000       8.237120000000       5.682590000000      -0.038501837237       0.015393324693      -0.022968015471
45 1       3.189280000000       3.578700000000       5.682590000000       0.038468189583       0.015447026085      -0.022979183919
46 1       3.189280000000       1.079710000000       1.024170000000       0.038481824014      -0.015346424980      -0.022956918502
47 1       3.189280000000       8.237120000000       3.634240000000       0.038464803572       0.015422181441       0.023021056194
48 1       3.189280000000       5.738130000000       8.292660000000       0.038482618900      -0.015351374307       0.022973938663
49 1       3.578700000000       3.634240000000       1.469140000000       0.015469413882       0.023024510048      -0.038483264192
50 1       3.578700000000       5.682590000000       3.189280000000       0.015447026085      -0.022979183919       0.038468189583
51 1       3.634240000000       1.469140000000       3.578700000000       0.023024510048      -0.038483264192       0.015469413882
52 1       3.634240000000       3.189280000000       8.237120000000       0.023021056194       0.038464803572       0.015422181441
53 1       5.682590000000       1.469140000000       8.237120000000      -0.022968015471      -0.038501837237       0.015393324693
54 1       5.682590000000       3.189280000000       3.578700000000      -0.022979183919       0.038468189583       0.015447026085
55 1       5.738130000000       8.292660000000       3.189280000000      -0.015351374307       0.022973938663       0.038482618900
56 1       5.738130000000       1.024170000000       1.469140000000      -0.015328441318      -0.022936505282      -0.038514712067
57 1       3.578700000000       1.024170000000       6.127560000000       0.015433548619      -0.022941640512      -0.038543558335
58 1       3.578700000000       8.292660000000       7.847690000000       0.015444315824       0.022976276056       0.038544361420
59 1       3.634240000000       6.127560000000       5.738130000000       0.022972934555      -0.038532096547      -0.015351163853
60 1       3.634240000000       7.847690000000       1.079710000000       0.022990553465       0.038532098619      -0.015356985451
61 1       5.682590000000       7.847690000000       5.738130000000      -0.022924813929       0.038549917561      -0.015316606651
62 1       5.682590000000       6.127560000000       1.079710000000      -0.022940302809      -0.038536231920      -0.015340285251
63 1       5.738130000000       3.634240000000       6.127560000000      -0.015351163853       0.022972934555      -0.038532096547
64 1       5.738130000000       5.682590000000       7.847690000000      -0.015316606651      -0.022924813929       0.038549917561
65 1       6.127560000000       1.079710000000       5.682590000000      -0.038536231920      -0.015340285251      -0.022940302809
66 1       6.127560000000       8.237120000000       8.292660000000      -0.038545112017       0.015402780118       0.022967898550
67 1       6.127560000000       5.738130000000       3.634240000000      -0.038532096547      -0.015351163853       0.022972934555
68 1       6.127560000000       3.578700000000       1.024170000000      -0.038543558335       0.015433548619      -0.022941640512
69 1       7.847690000000       8.237120000000       1.024170000000       0.038557994206       0.015374152852      -0.022935394810
70 1       7.847690000000       5.738130000000       5.682590000000       0.038549917561      -0.015316606651      -0.022924813929
71 1       7.847690000000       3.578700000000       8.292660000000       0.038544361420       0.015444315824       0.022976276056
72 1       7.847690000000       1.079710000000       3.634240000000       0.038532098619      -0.015356985451       0.022990553465
73 1       8.237120000000       8.292660000000       6.127560000000       0.015402780118       0.022967898550      -0.038545112017
74 1       8.237120000000       1.024170000000       7.847690000000       0.015374152852      -0.022935394810       0.038557994206
75 1       8.292660000000       6.127560000000       8.237120000000       0.022967898550      -0.038545112017       0.015402780118
76 1       8.292660000000       7.847690000000       3.578700000000       0.022976276056       0.038544361420       0.015444315824
77 1       1.024170000000       6.127560000000       3.578700000000      -0.022941640512      -0.038543558335       0.015433548619
78 1       1.024170000000       7.847690000000       8.237120000000      -0.022935394810       0.038557994206       0.015374152852
79 1       1.079710000000       3.634240000000       7.847690000000      -0.015356985451       0.022990553465       0.038532098619
80 1       1.079710000000       5.682590000000       6.127560000000      -0.015340285251      -0.022940302809      -0.038536231920
