ITEM: TIMESTEP
0
ITEM: NUMBER OF ATOMS
30
ITEM: BOX BOUNDS xy xz yz pp pp pp
-2.5571763789999999e+00 5.1143527579999999e+00 -2.5571763789999999e+00
0.0000000000000000e+00 4.4291598350000001e+00 0.0000000000000000e+00
0.0000000000000000e+00 1.3768203757000000e+01 0.0000000000000000e+00
ITEM: ATOMS id type c_pe_atom
1 2      -4.836548493911
2 2      -4.836542864852
3 2      -4.836556491976
4 2      -4.836547154289
5 2      -4.836548463445
6 2      -4.836556392191
7 2      -4.836544492088
8 2      -4.836546720531
9 2      -4.836559164252
10 2      -4.836556480119
11 2      -4.836558852016
12 2      -4.836548787341
13 1     -10.938916642399
14 1     -10.938905072385
15 1     -10.938911706952
16 1     -10.938907203857
17 1     -10.938916550273
18 1     -10.938909120180
19 1     -10.938911758623
20 1     -10.938916037225
21 1     -10.938902401461
22 1     -10.938903288492
23 1     -10.938897680515
24 1     -10.938905090134
25 1     -10.938899067259
26 1     -10.938905388429
27 1     -10.938913707242
28 1     -10.938906328443
29 1     -10.938902242474
30 1     -10.938900612002
