ITEM: TIMESTEP
0
ITEM: NUMBER OF ATOMS
30
ITEM: BOX BOUNDS xy xz yz pp pp pp
-2.5774312410000002e+00 5.1548624829999996e+00 -2.5774312410000002e+00
0.0000000000000000e+00 4.4642422890000004e+00 0.0000000000000000e+00
0.0000000000000000e+00 1.3877258835999999e+01 0.0000000000000000e+00
ITEM: ATOMS id type c_pe_atom
1 2      -6.171467026457
2 2      -6.171256610175
3 2      -6.171422419085
4 2      -6.171603115614
5 2      -6.171248027344
6 2      -6.171551311114
7 2      -6.171299308741
8 2      -6.171436467466
9 2      -6.171560991860
10 2      -6.171456569555
11 2      -6.171519058543
12 2      -6.171222527752
13 1      -5.756912120389
14 1      -5.756850576481
15 1      -5.756909306891
16 1      -5.757142086966
17 1      -5.757096893555
18 1      -5.757109074017
19 1      -5.757092924054
20 1      -5.757063406088
21 1      -5.757129115949
22 1      -5.757010866282
23 1      -5.757006830216
24 1      -5.756969332997
25 1      -5.756987676631
26 1      -5.757034634437
27 1      -5.757033730427
28 1      -5.756876691751
29 1      -5.756917665116
30 1      -5.756916971165
