ITEM: TIMESTEP
0
ITEM: NUMBER OF ATOMS
20
ITEM: BOX BOUNDS xy xz yz pp pp pp
-1.3847014142070000e+00 1.2410605324650000e+01 0.0000000000000000e+00
0.0000000000000000e+00 3.0733780500000001e+00 -1.3847014142070000e+00
0.0000000000000000e+00 5.6897962708229999e+00 0.0000000000000000e+00
ITEM: ATOMS id type x y z fx fy fz
1 2       1.532032970735       1.536690000000       1.787905067692       0.018164052004      -0.000013327569      -0.166252272332
2 2       3.288565648910       0.000000000000       3.901893869201      -0.018137099419       0.000013327626       0.166133004190
3 2       0.015748294137       0.000000000000       4.522120029160       0.006285104143       0.000014210308       0.009169970846
4 2       4.804852690148       1.536690000000       1.167669191330      -0.006256990716      -0.000014210315      -0.008998497336
5 2       7.737333687969       0.000000000000       1.787904925722       0.018205131402       0.000013327569      -0.166246136367
6 2       9.493866366144       1.536690000000       3.901893727231      -0.018096020041      -0.000013327626       0.166139140144
7 2       6.221049011371       1.536690000000       4.522119887190       0.006297055456      -0.000014210307       0.009173387180
8 2      11.010153407381       0.000000000000       1.167669049360      -0.006245039307       0.000014210317      -0.008995080929
9 1       5.803770411361       0.000000000000       1.462138277560      -0.056989466367       0.000017422068       0.011937141784
10 1      -0.983171791716       1.536690000000       4.227660659333       0.057024130737      -0.000017422033      -0.011938569347
11 1       1.371603219323       0.000000000000       3.207910185205      -0.027258225492       0.000005914887       0.088756119546
12 1       3.449007481364       1.536690000000       2.481881399925       0.027149627841      -0.000005915004      -0.088610925766
13 1       2.929536664789       1.536690000000       5.070600676001      -0.041200925713      -0.000013286057       0.032307704672
14 1       1.891071671260       0.000000000000       0.619200625532       0.041123069945       0.000013286034      -0.032517023349
15 1      12.009071128595       1.536690000000       1.462138135590      -0.056946681833      -0.000017422055       0.011942108014
16 1       5.222128925518       0.000000000000       4.227660517363       0.057066915215       0.000017422046      -0.011933603106
17 1       7.576903936557       1.536690000000       3.207910043235      -0.027259872591      -0.000005914893       0.088761147392
18 1       9.654308198598       0.000000000000       2.481881257955       0.027147980732       0.000005914998      -0.088605897815
19 1       9.134837382022       0.000000000000       5.070600534031      -0.041198370787       0.000013286048       0.032301505245
20 1       8.096372388493       1.536690000000       0.619200483562       0.041125624792      -0.000013286043      -0.032523222667
