ITEM: TIMESTEP
0
ITEM: NUMBER OF ATOMS
20
ITEM: BOX BOUNDS xy xz yz pp pp pp
-1.3847014142070000e+00 1.2410605324650000e+01 0.0000000000000000e+00
0.0000000000000000e+00 3.0733780500000001e+00 -1.3847014142070000e+00
0.0000000000000000e+00 5.6897962708229999e+00 0.0000000000000000e+00
ITEM: ATOMS id type c_pe_atom
1 2      -4.930752371507
2 2      -4.930744527795
3 2      -4.414087044702
4 2      -4.414071157444
5 2      -4.930749653795
6 2      -4.930747245539
7 2      -4.414082583737
8 2      -4.414075618403
9 1     -11.202504116904
10 1     -11.202499015719
11 1     -11.001620654259
12 1     -11.001606952153
13 1     -11.104260099889
14 1     -11.104247050651
15 1     -11.202497988158
16 1     -11.202505144396
17 1     -11.001621194150
18 1     -11.001606412295
19 1     -11.104259538967
20 1     -11.104247611587
