ITEM: TIMESTEP
0
ITEM: NUMBER OF ATOMS
20
ITEM: BOX BOUNDS xy xz yz pp pp pp
-1.3763598392300000e+00 1.2335842641690000e+01 0.0000000000000000e+00
0.0000000000000000e+00 3.0548637240000001e+00 -1.3763598392300000e+00
0.0000000000000000e+00 5.6555203896090003e+00 0.0000000000000000e+00
ITEM: ATOMS id type c_pe_atom
1 2      -4.820858504283
2 2      -4.820856017391
3 2      -4.291985970931
4 2      -4.291987197888
5 2      -4.820858084051
6 2      -4.820853885280
7 2      -4.291980751828
8 2      -4.291974721209
9 1     -11.271838388171
10 1     -11.271837038663
11 1     -11.060128547024
12 1     -11.060124833381
13 1     -11.185832333182
14 1     -11.185834517623
15 1     -11.271837272065
16 1     -11.271840869097
17 1     -11.060123399395
18 1     -11.060127089738
19 1     -11.185835193617
20 1     -11.185846911379
