ITEM: TIMESTEP
0
ITEM: NUMBER OF ATOMS
30
ITEM: BOX BOUNDS xy xz yz pp pp pp
-2.4862843610000001e+00 4.9725687210000000e+00 -2.4862843610000001e+00
0.0000000000000000e+00 4.3063712450000002e+00 0.0000000000000000e+00
0.0000000000000000e+00 1.3386510979000001e+01 0.0000000000000000e+00
ITEM: ATOMS id type c_pe_atom
1 2      -2.181623197603
2 2      -2.181481571371
3 2      -2.181608250164
4 2      -2.181582230259
5 2      -2.181383797494
6 2      -2.181624195008
7 2      -2.181381315627
8 2      -2.181619364110
9 2      -2.181622411364
10 2      -2.181590642761
11 2      -2.181612710305
12 2      -2.181469386877
13 1      -8.412243634659
14 1      -8.412261757369
15 1      -8.412168408198
16 1      -8.412338307166
17 1      -8.412291721795
18 1      -8.412267321768
19 1      -8.412414854096
20 1      -8.412333668995
21 1      -8.412409512886
22 1      -8.412377065416
23 1      -8.412428138802
24 1      -8.412377420393
25 1      -8.412324466393
26 1      -8.412221293824
27 1      -8.412363789085
28 1      -8.412217696966
29 1      -8.412182351738
30 1      -8.412320613086
