ITEM: TIMESTEP
0
ITEM: NUMBER OF ATOMS
30
ITEM: BOX BOUNDS xy xz yz pp pp pp
-2.4862843610000001e+00 4.9725687210000000e+00 -2.4862843610000001e+00
0.0000000000000000e+00 4.3063712450000002e+00 0.0000000000000000e+00
0.0000000000000000e+00 1.3386510979000001e+01 0.0000000000000000e+00
ITEM: ATOMS id type x y z fx fy fz
1 2       0.000000000000       0.000000000000       1.928820000000      -0.000015326676      -0.000016849640      -0.012392297585
2 2      -0.000000000000       2.870910000000       0.302270000000       0.000009286111       0.000102638216       0.012340943361
3 2       2.486280000000       1.435460000000       2.533340000000       0.000091323398      -0.000074796296       0.012479747229
4 2      -0.000000000000       2.870910000000       4.159910000000      -0.000040609360       0.000098827058      -0.012376785882
5 2       2.486280000000       1.435460000000       6.390990000000       0.000099640185      -0.000113195174      -0.012371422054
6 2       0.000000000000       0.000000000000       4.764430000000      -0.000003889403      -0.000013034345       0.012478004069
7 2      -0.000000000000       2.870910000000       6.995520000000       0.000028340412       0.000102794515       0.012373859532
8 2       0.000000000000       0.000000000000       8.622080000000       0.000018536657      -0.000001685285      -0.012480565413
9 2      -0.000000000000       2.870910000000      10.853170000000       0.000003980727       0.000097197455      -0.012463735132
10 2       2.486280000000       1.435460000000       9.226600000000       0.000107159332      -0.000073724759       0.012386563538
11 2       0.000000000000       0.000000000000      11.457690000000      -0.000022768247      -0.000016286421       0.012368663441
12 2       2.486280000000       1.435460000000      13.084240000000       0.000096494355      -0.000110140849      -0.012352354123
13 1      -0.753620000000       1.305310000000       3.346630000000       0.018551395190      -0.032271085708      -0.000076423404
14 1       1.507240000000       0.000000000000       3.346630000000      -0.037213226797      -0.000006280445      -0.000018574345
15 1       1.732660000000       3.001060000000       3.346630000000       0.018668816674       0.032255601814      -0.000057122042
16 1       3.239900000000       0.130150000000       1.115540000000      -0.018495410242       0.032203899709       0.000043736834
17 1       3.239910000000       2.740760000000       1.115540000000      -0.018733585144      -0.032114422089       0.000104530816
18 1       0.979050000000       1.435460000000       1.115540000000       0.037138551705      -0.000103702182       0.000064203729
19 1       1.732670000000       2.740760000000       7.808790000000       0.018617063175      -0.032132481298       0.000134811935
20 1       3.993530000000       1.435460000000       7.808790000000      -0.037276943919      -0.000147199338       0.000161207263
21 1       1.732670000000       0.130150000000       7.808790000000       0.018503536273       0.032243062775       0.000142184125
22 1       0.753620000000       1.565610000000       5.577720000000      -0.018688550361       0.032130065487      -0.000159983625
23 1       0.753620000000       4.176220000000       5.577720000000      -0.018573024355      -0.032223705142      -0.000104599417
24 1      -1.507240000000       2.870910000000       5.577720000000       0.037216035016       0.000147213974      -0.000164799103
25 1      -0.753620000000       4.176220000000      12.270970000000       0.018577313283      -0.032201275577      -0.000033374169
26 1       1.507240000000       2.870910000000      12.270970000000      -0.037218859252       0.000130728431      -0.000080770434
27 1      -0.753620000000       1.565610000000      12.270970000000       0.018631448421       0.032121124762      -0.000041400041
28 1      -1.732660000000       3.001060000000      10.039880000000      -0.018646113484       0.032263826002       0.000024742677
29 1       0.753620000000       1.305310000000      10.039880000000      -0.018601138103      -0.032251248734       0.000033202185
30 1       3.465330000000       0.000000000000      10.039880000000       0.037170524429      -0.000025866918       0.000037806036
