ITEM: TIMESTEP
0
ITEM: NUMBER OF ATOMS
30
ITEM: BOX BOUNDS xy xz yz pp pp pp
-2.4862843610000001e+00 4.9725687210000000e+00 -2.4862843610000001e+00
0.0000000000000000e+00 4.3063712450000002e+00 0.0000000000000000e+00
0.0000000000000000e+00 1.3386510979000001e+01 0.0000000000000000e+00
ITEM: ATOMS id type v_vir_xx v_vir_yy v_vir_zz v_vir_xy v_vir_xz v_vir_yz
1 2      -5.615173076313      -5.615228794041      -5.127126100289      -0.000022145161       0.000003515661       0.000011105776
2 2      -5.615423323626      -5.615344295329      -5.127306242377       0.000031089361       0.000002821099       0.000027289458
3 2      -5.615251541456      -5.615243168108      -5.127156178649       0.000008898566       0.000013528448      -0.000007282281
4 2      -5.615262272049      -5.615246870638      -5.127199126099       0.000018666644       0.000029451626      -0.000015795861
5 2      -5.615385867915      -5.615345597448      -5.127447565424       0.000006774951       0.000012256279       0.000028239159
6 2      -5.615171676292      -5.615248333106      -5.127195135784      -0.000003273649       0.000021358283      -0.000007195505
7 2      -5.615355790307      -5.615374006274      -5.127444854303       0.000019208805       0.000020686155       0.000030114986
8 2      -5.615171289279      -5.615262545477      -5.127195032819      -0.000026855336      -0.000005122661       0.000006250429
9 2      -5.615245523540      -5.615250020681      -5.127172026836       0.000027546058      -0.000025943371      -0.000021329582
10 2      -5.615241489240      -5.615239163789      -5.127198448213      -0.000020278354       0.000008247867      -0.000014993928
11 2      -5.615214898828      -5.615249007306      -5.127148279901      -0.000038531031      -0.000015932859       0.000001230470
12 2      -5.615407409968      -5.615347350370      -5.127303511460       0.000040103320      -0.000019567736       0.000023389339
13 1       2.058355067880       2.864212690437       2.260324599670      -0.697972273978       0.305658488778       0.176455195571
14 1       3.267192893060       1.655374726856       2.260326736961       0.000006229407      -0.000003964885      -0.352952260520
15 1       2.058294868963       2.864235826320       2.260323372962       0.697936310198      -0.305642778887       0.176464023028
16 1       2.058430348828       2.864260493848       2.260311288800      -0.697971950089       0.305666488306       0.176460518381
17 1       2.058319312763       2.864304551214       2.260310026749       0.697902429194      -0.305629320247       0.176500021589
18 1       3.267221316365       1.655399909976       2.260325089914       0.000062310779      -0.000023878533      -0.352943542748
19 1       2.058288494015       2.864289717378       2.260336469290      -0.697917664287       0.305664274036       0.176486486960
20 1       3.267180229656       1.655358588173       2.260300146815      -0.000073911545       0.000022633760      -0.352922355619
21 1       2.058371598580       2.864220983247       2.260330014667       0.697953897915      -0.305689875311       0.176454945608
22 1       2.058268409201       2.864299425267       2.260333402679      -0.697918715593       0.305635710222       0.176496303719
23 1       2.058356081393       2.864228793764       2.260317393052       0.697944409356      -0.305684691044       0.176464751305
24 1       3.267173564552       1.655379070847       2.260318424080      -0.000074941781       0.000018278938      -0.352946122096
25 1       2.058383032489       2.864265164909       2.260312530874      -0.697950495996       0.305661254043       0.176456619329
26 1       3.267195814561       1.655382145176       2.260320999856       0.000059362532      -0.000021854562      -0.352919467220
27 1       2.058345944290       2.864288464529       2.260317318319       0.697929266455      -0.305648591926       0.176481930527
28 1       2.058308207431       2.864224255572       2.260311348888      -0.697935863046       0.305650905235       0.176460072597
29 1       2.058307453608       2.864243260165       2.260327819625       0.697950095300      -0.305635047139       0.176465499949
30 1       3.267201387014       1.655406564028       2.260329696893       0.000008849053       0.000000818402      -0.352966675100
