ITEM: TIMESTEP
0
ITEM: NUMBER OF ATOMS
80
ITEM: BOX BOUNDS pp pp pp
0.0000000000000000e+00 9.5426977789999992e+00
0.0000000000000000e+00 9.5426977789999992e+00
0.0000000000000000e+00 9.5426977789999992e+00
ITEM: ATOMS id type x y z fx fy fz
1 2       7.157020000000       2.385670000000       2.385670000000       0.000030586135       0.000048377925       0.000060373271
2 2       7.157020000000       4.420750000000       4.771350000000       0.000041453045       0.197624557720      -0.000055649772
3 2       0.000000000000       7.157020000000       0.350600000000      -0.000035220562       0.000046098608      -0.197682697795
4 2       0.000000000000       2.385670000000       4.420750000000      -0.000033508015       0.000068916048       0.197620167344
5 2       0.350600000000       0.000000000000       7.157020000000      -0.197682697795      -0.000035220562       0.000046098608
6 2       0.350600000000       4.771350000000       2.385670000000      -0.197684955578      -0.000053938156       0.000073561891
7 2       2.385670000000       4.420750000000       0.000000000000       0.000068916048       0.197620167344      -0.000033508015
8 2       2.385670000000       7.157020000000       2.385670000000       0.000060373271       0.000030586135       0.000048377925
9 2       2.385670000000       2.385670000000       2.385670000000       0.000021783112       0.000021783112       0.000021783112
10 2       2.385670000000       2.385670000000       7.157020000000       0.000048377925       0.000060373271       0.000030586135
11 2       2.385670000000       0.350600000000       4.771350000000       0.000073561891      -0.197684955578      -0.000053938156
12 2       4.420750000000       0.000000000000       2.385670000000       0.197620167344      -0.000033508015       0.000068916048
13 2       4.420750000000       4.771350000000       7.157020000000       0.197624557720      -0.000055649772       0.000041453045
14 2       4.771350000000       2.385670000000       0.350600000000      -0.000053938156       0.000073561891      -0.197684955578
15 2       4.771350000000       7.157020000000       4.420750000000      -0.000055649772       0.000041453045       0.197624557720
16 2       7.157020000000       0.350600000000       0.000000000000       0.000046098608      -0.197682697795      -0.000035220562
17 2       2.385670000000       7.157020000000       7.157020000000       0.000037829113       0.000047903417       0.000063949387
18 2       2.385670000000       9.192100000000       0.000000000000       0.000048985281       0.197603496025      -0.000039069601
19 2       4.771350000000       2.385670000000       5.121950000000      -0.000059501717       0.000044337951      -0.197717693743
20 2       4.771350000000       7.157020000000       9.192100000000      -0.000057789454       0.000070677161       0.197607886258
21 2       5.121950000000       4.771350000000       2.385670000000      -0.197717693743      -0.000059501717       0.000044337951
22 2       5.121950000000       0.000000000000       7.157020000000      -0.197715435838      -0.000037357987       0.000066029660
23 2       7.157020000000       9.192100000000       4.771350000000       0.000070677161       0.197607886258      -0.000057789454
24 2       7.157020000000       2.385670000000       7.157020000000       0.000063949387       0.000037829113       0.000047903417
25 2       7.157020000000       7.157020000000       7.157020000000       0.000018590799       0.000018590799       0.000018590799
26 2       7.157020000000       7.157020000000       2.385670000000       0.000047903417       0.000063949387       0.000037829113
27 2       7.157020000000       5.121950000000       0.000000000000       0.000066029660      -0.197715435838      -0.000037357987
28 2       9.192100000000       4.771350000000       7.157020000000       0.197607886258      -0.000057789454       0.000070677161
29 2       9.192100000000       0.000000000000       2.385670000000       0.197603496025      -0.000039069601       0.000048985281
30 2       0.000000000000       7.157020000000       5.121950000000      -0.000037357987       0.000066029660      -0.197715435838
31 2       0.000000000000       2.385670000000       9.192100000000      -0.000039069601       0.000048985281       0.197603496025
32 2       2.385670000000       5.121950000000       4.771350000000       0.000044337951      -0.197717693743      -0.000059501717
33 1       8.465300000000       5.849990000000       1.515020000000       0.049968228749      -0.151082251757       0.015156134737
34 1       8.465300000000       3.692710000000       3.256320000000       0.049948205449       0.151077385686      -0.015079234194
35 1       8.464060000000       1.515020000000       1.077400000000       0.151064598962       0.015143072454      -0.050015138197
36 1       8.464060000000       3.256320000000       5.848750000000       0.151071771284      -0.015073698607      -0.050025277316
37 1       1.078640000000       3.256320000000       1.077400000000      -0.151082801153      -0.015076910317      -0.050023531284
38 1       1.078640000000       1.515020000000       5.848750000000      -0.151088917709       0.015154955365      -0.050053039316
39 1       1.077400000000       8.464060000000       1.515020000000      -0.050015138197       0.151064598962       0.015143072454
40 1       1.077400000000       1.078640000000       3.256320000000      -0.050023531284      -0.151082801153      -0.015076910317
41 1       1.515020000000       5.848750000000       1.078640000000       0.015154955365      -0.050053039316      -0.151088917709
42 1       1.515020000000       3.693950000000       3.692710000000       0.015157273985       0.049984997756       0.151083614928
43 1       1.515020000000       1.077400000000       8.464060000000       0.015143072454      -0.050015138197       0.151064598962
44 1       1.515020000000       8.465300000000       5.849990000000       0.015156134737       0.049968228749      -0.151082251757
45 1       3.256320000000       3.693950000000       5.849990000000      -0.015086756932       0.049985652238      -0.151089537091
46 1       3.256320000000       1.077400000000       1.078640000000      -0.015076910317      -0.050023531284      -0.151082801153
47 1       3.256320000000       8.465300000000       3.692710000000      -0.015079234194       0.049948205449       0.151077385686
48 1       3.256320000000       5.848750000000       8.464060000000      -0.015073698607      -0.050025277316       0.151071771284
49 1       3.693950000000       3.692710000000       1.515020000000       0.049984997756       0.151083614928       0.015157273985
50 1       3.693950000000       5.849990000000       3.256320000000       0.049985652238      -0.151089537091      -0.015086756932
51 1       3.692710000000       1.515020000000       3.693950000000       0.151083614928       0.015157273985       0.049984997756
52 1       3.692710000000       3.256320000000       8.465300000000       0.151077385686      -0.015079234194       0.049948205449
53 1       5.849990000000       1.515020000000       8.465300000000      -0.151082251757       0.015156134737       0.049968228749
54 1       5.849990000000       3.256320000000       3.693950000000      -0.151089537091      -0.015086756932       0.049985652238
55 1       5.848750000000       8.464060000000       3.256320000000      -0.050025277316       0.151071771284      -0.015073698607
56 1       5.848750000000       1.078640000000       1.515020000000      -0.050053039316      -0.151088917709       0.015154955365
57 1       3.693950000000       1.078640000000       6.286370000000       0.049996964157      -0.151084226520       0.015151109956
58 1       3.693950000000       8.464060000000       8.027670000000       0.049969265333       0.151069650559      -0.015091121719
59 1       3.692710000000       6.286370000000       5.848750000000       0.151084678170       0.015146315280      -0.050042905904
60 1       3.692710000000       8.027670000000       1.077400000000       0.151081132363      -0.015089536564      -0.050013463569
61 1       5.849990000000       8.027670000000       5.848750000000      -0.151093170845      -0.015097065843      -0.050043623121
62 1       5.849990000000       6.286370000000       1.077400000000      -0.151083425332       0.015145172159      -0.050033420233
63 1       5.848750000000       3.692710000000       6.286370000000      -0.050042905904       0.151084678170       0.015146315280
64 1       5.848750000000       5.849990000000       8.027670000000      -0.050043623121      -0.151093170845      -0.015097065843
65 1       6.286370000000       1.077400000000       5.849990000000       0.015145172159      -0.050033420233      -0.151083425332
66 1       6.286370000000       8.465300000000       8.464060000000       0.015139233385       0.049951775996       0.151059794668
67 1       6.286370000000       5.848750000000       3.692710000000       0.015146315280      -0.050042905904       0.151084678170
68 1       6.286370000000       3.693950000000       1.078640000000       0.015151109956       0.049996964157      -0.151084226520
69 1       8.027670000000       8.465300000000       1.078640000000      -0.015094337509       0.049960235782      -0.151080570305
70 1       8.027670000000       5.848750000000       5.849990000000      -0.015097065843      -0.050043623121      -0.151093170845
71 1       8.027670000000       3.693950000000       8.464060000000      -0.015091121719       0.049969265333       0.151069650559
72 1       8.027670000000       1.077400000000       3.692710000000      -0.015089536564      -0.050013463569       0.151081132363
73 1       8.465300000000       8.464060000000       6.286370000000       0.049951775996       0.151059794668       0.015139233385
74 1       8.465300000000       1.078640000000       8.027670000000       0.049960235782      -0.151080570305      -0.015094337509
75 1       8.464060000000       6.286370000000       8.465300000000       0.151059794668       0.015139233385       0.049951775996
76 1       8.464060000000       8.027670000000       3.693950000000       0.151069650559      -0.015091121719       0.049969265333
77 1       1.078640000000       6.286370000000       3.693950000000      -0.151084226520       0.015151109956       0.049996964157
78 1       1.078640000000       8.027670000000       8.465300000000      -0.151080570305      -0.015094337509       0.049960235782
79 1       1.077400000000       3.692710000000       8.027670000000      -0.050013463569       0.151081132363      -0.015089536564
80 1       1.077400000000       5.849990000000       6.286370000000      -0.050033420233      -0.151083425332       0.015145172159
