ITEM: TIMESTEP
0
ITEM: NUMBER OF ATOMS
30
ITEM: BOX BOUNDS xy xz yz pp pp pp
-2.5673038099999999e+00 5.1346076209999998e+00 -2.5673038099999999e+00
0.0000000000000000e+00 4.4467010619999998e+00 0.0000000000000000e+00
0.0000000000000000e+00 1.3822731296000001e+01 0.0000000000000000e+00
ITEM: ATOMS id type c_pe_atom
1 2      -4.893477745785
2 2      -4.893476302006
3 2      -4.893490393815
4 2      -4.893483935244
5 2      -4.893472227386
6 2      -4.893476838674
7 2      -4.893475471615
8 2      -4.893466647017
9 2      -4.893485137798
10 2      -4.893486981880
11 2      -4.893480830279
12 2      -4.893475881934
13 1     -10.892056032249
14 1     -10.892066544603
15 1     -10.892060193431
16 1     -10.892067574837
17 1     -10.892059399139
18 1     -10.892066417621
19 1     -10.892065537867
20 1     -10.892058513587
21 1     -10.892074967479
22 1     -10.892072764166
23 1     -10.892075128423
24 1     -10.892066685346
25 1     -10.892071220241
26 1     -10.892064391496
27 1     -10.892058690887
28 1     -10.892051966634
29 1     -10.892058975516
30 1     -10.892059075375
