ITEM: TIMESTEP
0
ITEM: NUMBER OF ATOMS
40
ITEM: BOX BOUNDS pp pp pp
0.0000000000000000e+00 8.9605695559999994e+00
0.0000000000000000e+00 5.2180209399999997e+00
0.0000000000000000e+00 9.5880727189999995e+00
ITEM: ATOMS id type v_vir_xx v_vir_yy v_vir_zz v_vir_xy v_vir_xz v_vir_yz
1 2      -0.717377747841      -0.882619958030      -1.208956956294       0.592351873223       0.917716540783      -0.887164675638
2 2      -0.717356165149      -0.882613075886      -1.208970528574      -0.592331811029      -0.917691951562      -0.887142109297
3 2      -2.180289439964      -2.640183382526      -1.970201041758      -0.397950316333      -0.255353741366       0.658346743824
4 2      -2.180195092932      -2.640098170254      -1.970267788937       0.397965590156       0.255366092283       0.658346677502
5 2      -0.989047705377      -0.640983895577      -0.574208040614      -0.385334664455       0.603821808689      -0.134625759313
6 2      -1.333931181928      -1.504691549659      -3.103665923527       0.446736316640      -0.511988524307      -1.107822276149
7 2      -1.333926460853      -1.504699399619      -3.103701345236      -0.446729978263       0.512005303645      -1.107789324807
8 2      -0.989008115528      -0.640947137114      -0.574134869746       0.385307700619      -0.603836022016      -0.134601717270
9 2      -2.179920176925      -2.638708078509      -1.967097995941       0.397047889726      -0.255247645116      -0.660881193408
10 2      -2.179928038358      -2.638806039656      -1.967037600192      -0.397115056814       0.255256961260      -0.660906873427
11 2      -0.723470793001      -0.887462055357      -1.213158417647      -0.596189492114       0.921326476347       0.880755698000
12 2      -0.723479497662      -0.887451904464      -1.213152662506       0.596190867659      -0.921360725021       0.880757009019
13 2      -0.981227492076      -0.640997567103      -0.573902070590      -0.385219300224      -0.601043157252       0.131414019813
14 2      -1.325258903648      -1.507396389014      -3.106579301508      -0.446690039300      -0.512069110916       1.103131202831
15 2      -1.325240401893      -1.507375503405      -3.106540347260       0.446689926917       0.512053102862       1.103156467287
16 2      -0.981201181924      -0.640973559443      -0.573865726380       0.385211038421       0.601047601178       0.131395050006
17 1       1.000399225261       1.768372468291       1.293425675660       0.438452331045       1.018457277510      -0.820842248985
18 1       0.954809480491       1.225237936784       1.418127528183      -0.377801172599      -1.030104683039      -0.520260644834
19 1       1.863010102991       1.358542138212       1.490141578510      -0.477122327593      -0.590633542901      -0.947852351500
20 1       2.687714213055       2.718219950315       3.245664827623      -0.088818082719      -0.495745265456      -0.941391266775
21 1       1.000397114264       1.768398594002       1.293418380485      -0.438453726622      -1.018449338586      -0.820844647207
22 1       2.326717531039       2.107129251801       2.203450504146      -0.080897836233      -0.094537516561      -0.305800696938
23 1       1.863127475662       1.358511317591       1.490159561238       0.477159844068       0.590644567128      -0.947801307451
24 1       2.687692714556       2.718206481707       3.245672323994       0.088833845006       0.495747233594      -0.941408198268
25 1       2.330875701915       2.105809382627       2.204214296306      -0.081293400586       0.094148586300       0.307411926481
26 1       0.996727925232       1.762163802700       1.290688286349      -0.435537782524       1.019791276486       0.823291452426
27 1       2.682537413284       2.711581424725       3.241605431541      -0.086024888751       0.496028071413       0.945477655428
28 1       1.860507806276       1.355093623482       1.487628484582      -0.475915804927       0.590645592914       0.947052420941
29 1       0.955778691022       1.228432904645       1.419748214251      -0.380657441133       1.029157262495       0.522250830436
30 1       0.996739966133       1.762142502301       1.290690441872       0.435530007969      -1.019784910452       0.823276140414
31 1       1.892131827175       2.679500594671       2.510483308287      -0.083724224725       0.139460354482      -0.081040211158
32 1       1.895390061542       2.681323635415       2.510853463039      -0.083637675379      -0.138078489723       0.082603403861
33 1       0.955816742718       1.228442030449       1.419780623800       0.380628245798      -1.029149080758       0.522261110218
34 1       2.326702784855       2.107130067659       2.203488092917       0.080908692997       0.094547368163      -0.305804637910
35 1       1.892086847437       2.679501228075       2.510493845632       0.083704705582      -0.139465698919      -0.081056492132
36 1       1.895344511175       2.681340642186       2.510883838969       0.083636425865       0.138066002181       0.082604985487
37 1       2.330897657351       2.105845397176       2.204318928049       0.081296736705      -0.094156511790       0.307426639495
38 1       0.954847922198       1.225222342448       1.418162411149       0.377797770143       1.030107833879      -0.520273151464
39 1       2.682503565792       2.711581857488       3.241612517793       0.086025759315      -0.496022729402       0.945503320533
40 1       1.860509537247       1.354977536846       1.487672721288       0.475885900398      -0.590601334735       0.947026154578
