ITEM: TIMESTEP
0
ITEM: NUMBER OF ATOMS
80
ITEM: BOX BOUNDS pp pp pp
0.0000000000000000e+00 9.5615196680000007e+00
0.0000000000000000e+00 9.5615196680000007e+00
0.0000000000000000e+00 9.5615196680000007e+00
ITEM: ATOMS id type x y z fx fy fz
1 2       7.171140000000       2.390380000000       2.390380000000      -0.000000824319      -0.000000406205      -0.000000915985
2 2       7.171140000000       4.427770000000       4.780760000000      -0.000000622533       0.213948513112      -0.000000105620
3 2       0.000000000000       7.171140000000       0.352990000000       0.000002932989       0.000000084782      -0.213943703887
4 2       0.000000000000       2.390380000000       4.427770000000       0.000003091779      -0.000000845359       0.213947853330
5 2       0.352990000000       0.000000000000       7.171140000000      -0.213943703887       0.000002932989       0.000000084782
6 2       0.352990000000       4.780760000000       2.390380000000      -0.213944047975       0.000000053170      -0.000000138044
7 2       2.390380000000       4.427770000000       0.000000000000      -0.000000845359       0.213947853330       0.000003091779
8 2       2.390380000000       7.171140000000       2.390380000000      -0.000000915985      -0.000000824319      -0.000000406205
9 2       2.390380000000       2.390380000000       2.390380000000       0.000000156302       0.000000156302       0.000000156302
10 2       2.390380000000       2.390380000000       7.171140000000      -0.000000406205      -0.000000915985      -0.000000824319
11 2       2.390380000000       0.352990000000       4.780760000000      -0.000000138044      -0.213944047975       0.000000053170
12 2       4.427770000000       0.000000000000       2.390380000000       0.213947853330       0.000003091779      -0.000000845359
13 2       4.427770000000       4.780760000000       7.171140000000       0.213948513112      -0.000000105620      -0.000000622533
14 2       4.780760000000       2.390380000000       0.352990000000       0.000000053170      -0.000000138044      -0.213944047975
15 2       4.780760000000       7.171140000000       4.427770000000      -0.000000105620      -0.000000622533       0.213948513112
16 2       7.171140000000       0.352990000000       0.000000000000       0.000000084782      -0.213943703887       0.000002932989
17 2       2.390380000000       7.171140000000       7.171140000000       0.000000257088      -0.000000508920      -0.000000408134
18 2       2.390380000000       9.208530000000       0.000000000000       0.000000519651       0.213945358707       0.000002367336
19 2       4.780760000000       2.390380000000       5.133750000000      -0.000000671273      -0.000000187664      -0.213948920897
20 2       4.780760000000       7.171140000000       9.208530000000      -0.000000512483      -0.000000572913       0.213946018490
21 2       5.133750000000       4.780760000000       2.390380000000      -0.213948920897      -0.000000671273      -0.000000187664
22 2       5.133750000000       0.000000000000       7.171140000000      -0.213948576809       0.000002526126      -0.000001280228
23 2       7.171140000000       9.208530000000       4.780760000000      -0.000000572913       0.213946018490      -0.000000512483
24 2       7.171140000000       2.390380000000       7.171140000000      -0.000000408134       0.000000257088      -0.000000508920
25 2       7.171140000000       7.171140000000       7.171140000000      -0.000000314538      -0.000000314538      -0.000000314538
26 2       7.171140000000       7.171140000000       2.390380000000      -0.000000508920      -0.000000408134       0.000000257088
27 2       7.171140000000       5.133750000000       0.000000000000      -0.000001280228      -0.213948576809       0.000002526126
28 2       9.208530000000       4.780760000000       7.171140000000       0.213946018490      -0.000000512483      -0.000000572913
29 2       9.208530000000       0.000000000000       2.390380000000       0.213945358707       0.000002367336       0.000000519651
30 2       0.000000000000       7.171140000000       5.133750000000       0.000002526126      -0.000001280228      -0.213948576809
31 2       0.000000000000       2.390380000000       9.208530000000       0.000002367336       0.000000519651       0.213945358707
32 2       2.390380000000       5.133750000000       4.780760000000      -0.000000187664      -0.213948920897      -0.000000671273
33 1       8.485030000000       5.864530000000       1.519450000000       0.060989364918      -0.169830323321       0.008839471152
34 1       8.485030000000       3.696990000000       3.261310000000       0.060989482344       0.169830404580      -0.008838020500
35 1       8.477750000000       1.519450000000       1.076490000000       0.169828485959       0.008838508144      -0.060988947996
36 1       8.477750000000       3.261310000000       5.857250000000       0.169829171462      -0.008837732031      -0.060992034588
37 1       1.083770000000       3.261310000000       1.076490000000      -0.169829616358      -0.008837759104      -0.060990248638
38 1       1.083770000000       1.519450000000       5.857250000000      -0.169830922900       0.008839831126      -0.060993074021
39 1       1.076490000000       8.477750000000       1.519450000000      -0.060988947996       0.169828485959       0.008838508144
40 1       1.076490000000       1.083770000000       3.261310000000      -0.060990248638      -0.169829616358      -0.008837759104
41 1       1.519450000000       5.857250000000       1.083770000000       0.008839831126      -0.060993074021      -0.169830922900
42 1       1.519450000000       3.704270000000       3.696990000000       0.008840085802       0.060993391733       0.169831723721
43 1       1.519450000000       1.076490000000       8.477750000000       0.008838508144      -0.060988947996       0.169828485959
44 1       1.519450000000       8.485030000000       5.864530000000       0.008839471152       0.060989364918      -0.169830323321
45 1       3.261310000000       3.704270000000       5.864530000000      -0.008838688320       0.060993535515      -0.169831021423
46 1       3.261310000000       1.076490000000       1.083770000000      -0.008837759104      -0.060990248638      -0.169829616358
47 1       3.261310000000       8.485030000000       3.696990000000      -0.008838020500       0.060989482344       0.169830404580
48 1       3.261310000000       5.857250000000       8.477750000000      -0.008837732031      -0.060992034588       0.169829171462
49 1       3.704270000000       3.696990000000       1.519450000000       0.060993391733       0.169831723721       0.008840085802
50 1       3.704270000000       5.864530000000       3.261310000000       0.060993535515      -0.169831021423      -0.008838688320
51 1       3.696990000000       1.519450000000       3.704270000000       0.169831723721       0.008840085802       0.060993391733
52 1       3.696990000000       3.261310000000       8.485030000000       0.169830404580      -0.008838020500       0.060989482344
53 1       5.864530000000       1.519450000000       8.485030000000      -0.169830323321       0.008839471152       0.060989364918
54 1       5.864530000000       3.261310000000       3.704270000000      -0.169831021423      -0.008838688320       0.060993535515
55 1       5.857250000000       8.477750000000       3.261310000000      -0.060992034588       0.169829171462      -0.008837732031
56 1       5.857250000000       1.083770000000       1.519450000000      -0.060993074021      -0.169830922900       0.008839831126
57 1       3.704270000000       1.083770000000       6.300210000000       0.060993644101      -0.169830631310       0.008838732472
58 1       3.704270000000       8.477750000000       8.042070000000       0.060992615162       0.169829262048      -0.008839770461
59 1       3.696990000000       6.300210000000       5.857250000000       0.169831481714       0.008839001747      -0.060993081988
60 1       3.696990000000       8.042070000000       1.076490000000       0.169830557349      -0.008840066808      -0.060990267099
61 1       5.864530000000       8.042070000000       5.857250000000      -0.169831161592      -0.008840741349      -0.060993236264
62 1       5.864530000000       6.300210000000       1.076490000000      -0.169830093913       0.008838380377      -0.060990139179
63 1       5.857250000000       3.696990000000       6.300210000000      -0.060993081988       0.169831481714       0.008839001746
64 1       5.857250000000       5.864530000000       8.042070000000      -0.060993236264      -0.169831161592      -0.008840741349
65 1       6.300210000000       1.076490000000       5.864530000000       0.008838380377      -0.060990139179      -0.169830093913
66 1       6.300210000000       8.485030000000       8.477750000000       0.008837416209       0.060988434072       0.169828181769
67 1       6.300210000000       5.857250000000       3.696990000000       0.008839001747      -0.060993081988       0.169831481714
68 1       6.300210000000       3.704270000000       1.083770000000       0.008838732472       0.060993644101      -0.169830631310
69 1       8.042070000000       8.485030000000       1.083770000000      -0.008839804254       0.060989745207      -0.169829694345
70 1       8.042070000000       5.857250000000       5.864530000000      -0.008840741349      -0.060993236264      -0.169831161592
71 1       8.042070000000       3.704270000000       8.477750000000      -0.008839770461       0.060992615162       0.169829262048
72 1       8.042070000000       1.076490000000       3.696990000000      -0.008840066808      -0.060990267099       0.169830557349
73 1       8.485030000000       8.477750000000       6.300210000000       0.060988434072       0.169828181769       0.008837416209
74 1       8.485030000000       1.083770000000       8.042070000000       0.060989745207      -0.169829694345      -0.008839804254
75 1       8.477750000000       6.300210000000       8.485030000000       0.169828181769       0.008837416209       0.060988434072
76 1       8.477750000000       8.042070000000       3.704270000000       0.169829262048      -0.008839770461       0.060992615162
77 1       1.083770000000       6.300210000000       3.704270000000      -0.169830631310       0.008838732472       0.060993644101
78 1       1.083770000000       8.042070000000       8.485030000000      -0.169829694345      -0.008839804254       0.060989745207
79 1       1.076490000000       3.696990000000       8.042070000000      -0.060990267099       0.169830557349      -0.008840066808
80 1       1.076490000000       5.864530000000       6.300210000000      -0.060990139179      -0.169830093913       0.008838380377
