ITEM: TIMESTEP
0
ITEM: NUMBER OF ATOMS
160
ITEM: BOX BOUNDS pp pp pp
0.0000000000000000e+00 8.4170517050000004e+00
0.0000000000000000e+00 8.4170517050000004e+00
0.0000000000000000e+00 2.5251155113999999e+01
ITEM: ATOMS id type x y z fx fy fz
1 2       1.220160000000       5.223820000000      22.210300000000      -0.116347702347       0.119802087184      -0.066081006209
2 2       5.229050000000       0.850860000000      13.745180000000      -0.162678182488      -0.043480086634      -0.020320716305
3 2       7.194810000000       7.441110000000       7.427660000000      -0.145480873665       0.095523151966      -0.046600758703
4 2       7.326130000000       7.172160000000      15.850950000000       0.008451643881      -0.022634009935       0.034082520630
5 2       5.253430000000       5.276690000000       0.987070000000       0.124745331943       0.247705961810      -0.014341062152
6 2       3.047220000000       3.221760000000       7.246720000000       0.012167846609      -0.141804023673      -0.012947136964
7 2       0.957620000000       1.053840000000       1.094520000000      -0.121972892427       0.026989633710      -0.020838455811
8 2       5.196810000000       1.033770000000       5.270520000000       0.018480068658       0.142157700780       0.019296052832
9 2       3.198910000000       2.983120000000      15.734960000000      -0.064336322298       0.013832758655       0.022804163226
10 2       5.411310000000       1.123340000000      22.024280000000      -0.100468776745       0.056352740841       0.060552848050
11 2       3.155850000000       7.289950000000      11.573730000000      -0.062734742011      -0.013339223004      -0.001888618486
12 2       7.463420000000       3.211770000000      19.915350000000       0.127708295523      -0.210634843355      -0.042831668739
13 2       1.024990000000       5.125720000000      13.553800000000       0.024493809025       0.103265843956      -0.030034245180
14 2       7.364170000000       3.238360000000       3.221080000000      -0.135612661913      -0.277245830081       0.009581854924
15 2       5.121550000000       5.358190000000       9.419660000000      -0.058787660160       0.132384350259       0.042173185636
16 2       7.397680000000       7.479100000000      24.226880000000      -0.048702066469      -0.158378703464       0.026629234689
17 2       3.210560000000       7.490430000000      20.031810000000      -0.101373824290      -0.041261071037       0.027892095093
18 2       0.920070000000       1.079940000000       9.573890000000       0.108143679755       0.028228238507      -0.006740392931
19 2       3.242800000000       7.462480000000       3.116720000000       0.094412819164      -0.001640908293      -0.008387182781
20 2       1.185200000000       1.039380000000      17.913110000000      -0.118478071867       0.038909135327       0.035552499813
21 2       3.952210000000       0.190670000000       8.427700000000       0.227274284196      -0.214964048873       0.009439365365
22 2       6.169600000000       6.146930000000      12.604390000000       0.032657615749      -0.048367680078      -0.052183834599
23 2       2.172380000000       2.142130000000      21.057440000000       0.040107492411      -0.124988166588       0.078959038548
24 2       6.440890000000       6.329270000000      21.010920000000       0.004320161083      -0.196700167634       0.080017322227
25 2       1.972570000000       6.436010000000       8.329230000000      -0.069031297756       0.028843764115       0.011585548242
26 2       8.366210000000       2.072900000000       6.273770000000       0.232164913664       0.065505954486      -0.228540924298
27 2       2.006200000000       2.107810000000       4.246470000000      -0.153473399028       0.161250267263       0.108311805667
28 2       0.054250000000       2.027660000000      14.696160000000       0.043343668692       0.215625394053       0.064859121919
29 2       0.163960000000       6.239730000000      18.892910000000       0.082969684415      -0.102693215360      -0.122213440636
30 2       6.301320000000       0.054620000000       2.114720000000       0.038098061232      -0.017255726768      -0.007146297122
31 2       6.127540000000       0.071610000000      10.583020000000       0.018136245550      -0.012802023560       0.060985217525
32 2       4.193990000000       2.211560000000      18.889560000000       0.094680356817      -0.081500051241      -0.182997867190
33 2       6.445170000000       8.383690000000      18.946480000000       0.115126514032       0.094053586669      -0.082925225050
34 2       6.389960000000       2.056310000000      16.814370000000      -0.011013768083       0.010270687379       0.214963056055
35 2       0.162590000000       2.074120000000      23.205150000000      -0.059067914716       0.117792132674       0.187939791446
36 2       2.045750000000       8.207960000000      14.823390000000      -0.106812889032      -0.026784509956      -0.094623239673
37 2       4.029290000000       6.061580000000      14.735960000000       0.208167849873       0.167234950476       0.033689888938
38 2       6.275590000000       4.225150000000       6.340800000000      -0.041224807738      -0.023519235347      -0.204852962553
39 2       4.234780000000       6.417060000000      23.187300000000      -0.101027544816      -0.111095778034       0.191853351082
40 2       0.098200000000       4.211350000000      16.829840000000      -0.024451971333       0.021208897753       0.243629052313
41 2       2.094610000000       4.260070000000       2.104110000000       0.019699954827      -0.008871046126      -0.000626775801
42 2       4.152190000000       4.331430000000      20.989100000000       0.042973882291      -0.056709475479       0.040790588953
43 2       4.161470000000       8.225760000000      16.895430000000       0.092801012251       0.042019212948       0.152202213476
44 2       6.342070000000       4.262090000000      23.091890000000       0.077220149829      -0.123877949230       0.100168500351
45 2       8.352610000000       6.245100000000      10.496070000000      -0.011230697830       0.039243298584       0.221583546176
46 2       8.402750000000       8.344100000000      12.649620000000       0.017480197838      -0.108227764005      -0.253344701951
47 2       0.024390000000       4.301530000000       0.044190000000      -0.089958052628       0.052935706776      -0.157534048270
48 2       6.247250000000       4.086020000000      14.703530000000       0.139693784616       0.084645188839      -0.053447781005
49 2       4.166230000000       4.212890000000       4.164180000000       0.094697747407      -0.051477724054       0.178870687928
50 2       2.136450000000       2.044640000000      12.554210000000      -0.119434063851       0.238387021377      -0.153880567008
51 2       2.104100000000       4.135090000000      10.537060000000      -0.176414970597      -0.182379482191       0.104911027430
52 2       0.041640000000       6.471460000000       2.206580000000       0.082022396853       0.032744037817      -0.065599626762
53 2       0.203600000000       8.375200000000      21.145100000000      -0.001975230127      -0.192483978495      -0.132405717359
54 2       4.144780000000       2.046050000000       1.994550000000      -0.131755903155      -0.025961001816       0.037620520286
55 2       6.236170000000       2.061370000000      25.201560000000       0.056665559001       0.049448209436      -0.176239273257
56 2       8.395450000000       4.155060000000       8.414890000000      -0.029760415066       0.034452376676      -0.015017369124
57 2       6.114700000000       2.174210000000       8.518420000000      -0.055155283477       0.084201564600      -0.065670138559
58 2       4.041440000000       6.453160000000       6.256870000000       0.061797447669      -0.034342454905      -0.103093317172
59 2       6.370550000000       6.457600000000       4.264760000000      -0.059599060737      -0.058116600751       0.160771673094
60 2       2.192850000000       6.415860000000      25.223090000000       0.139687155797      -0.142354477685      -0.155806551614
61 2       5.188240000000       3.135950000000      11.617840000000      -0.089333793598      -0.081296147592      -0.021161579862
62 2       3.192650000000       1.075130000000      24.175920000000       0.069342436176      -0.036168245854      -0.009386530205
63 2       3.181590000000       5.199700000000      17.879160000000      -0.077781327280       0.053189232586       0.010832854659
64 2       0.992210000000       7.436200000000       5.257600000000       0.012435149700       0.059812416933       0.006792161550
65 1       2.131980000000       2.151800000000       2.129890000000       0.105495966367       0.019785409029      -0.095763593802
66 1       6.183790000000       6.261050000000       6.275800000000       0.052824537816      -0.006098520774      -0.024392424614
67 1       4.280390000000       8.347220000000       6.460190000000      -0.026019920008       0.121549794239       0.061186214382
68 1       4.329070000000       0.129200000000       2.106250000000       0.067378975160      -0.043945326778       0.016011621440
69 1       8.295180000000       6.405030000000       4.138080000000       0.062173582745      -0.027900384272       0.088102079350
70 1       0.033780000000       2.201770000000       4.295620000000       0.096722700459       0.016282325194       0.115402665703
71 1       6.223030000000       4.183920000000       8.387000000000       0.199327547570      -0.116330914475       0.072140786761
72 1       1.911600000000       4.467750000000       0.239340000000      -0.011544704665       0.185131966819      -0.023655249610
73 1       8.405890000000       4.375650000000       2.089620000000       0.124969449243       0.038556610083      -0.021952528718
74 1       8.153150000000       4.028190000000       6.551400000000      -0.033457135405      -0.157998332586      -0.006713969600
75 1       4.309770000000       2.106990000000       0.058620000000      -0.073025633156       0.013161670437      -0.042185548835
76 1       4.034150000000       6.409240000000       8.283830000000       0.016615730997       0.128236138419      -0.095933685510
77 1       2.119760000000       0.080400000000       4.193410000000       0.015357521657      -0.055597946812      -0.042338237971
78 1       6.173090000000       8.361550000000       4.109280000000       0.001875078759       0.083515102075      -0.142228024519
79 1       2.112530000000       6.434530000000       6.390700000000      -0.080445366744      -0.007899220768      -0.072923144246
80 1       6.252800000000       2.131150000000       2.039610000000       0.062681310467       0.063407588427       0.073976016156
81 1       4.205520000000       4.142240000000       2.116450000000      -0.143565796875      -0.056381379932       0.026587771232
82 1       4.242320000000       4.350710000000       6.198780000000      -0.098329565556       0.008032186558       0.030300983115
83 1       8.218710000000       2.110520000000       8.406540000000      -0.021336261424       0.045852531958       0.014854625041
84 1       0.042250000000       6.335540000000       0.087460000000       0.101757277708      -0.000941744756      -0.062370721749
85 1       8.276580000000       0.065900000000       6.334480000000       0.007897936492       0.023477690084       0.010024226417
86 1       8.278170000000       8.389890000000       2.100210000000      -0.085530329724       0.047660856402       0.001256106263
87 1       4.259520000000       6.262120000000       4.257040000000      -0.121063122648       0.065281702951       0.066316948797
88 1       4.144650000000       2.177390000000       4.130910000000      -0.067285068972       0.000844416101       0.032384091030
89 1       6.284850000000       2.171800000000       6.381920000000      -0.033509070796      -0.051351600912      -0.025211949460
90 1       2.063620000000       6.368660000000       2.077500000000      -0.060061186927      -0.020542259590       0.114511340580
91 1       2.281000000000       4.056170000000       3.967060000000       0.014469605797      -0.192272302182       0.033459279438
92 1       6.189470000000       4.342270000000       4.293700000000       0.056528674101       0.053393079435      -0.059389222196
93 1       6.419080000000       0.154290000000       0.112840000000       0.023003074766      -0.061755888317       0.099486439238
94 1       2.050650000000       8.369730000000       8.577470000000       0.055316158440       0.023164600696      -0.044403833072
95 1       6.354330000000       6.388750000000       2.168400000000      -0.069899366412      -0.051066533500      -0.023154634998
96 1       1.921790000000       2.186820000000       6.193990000000      -0.047569407347       0.019605918522       0.016459312028
97 1       2.017020000000       2.166080000000      10.600890000000      -0.035627057612       0.043080834601       0.035687929384
98 1       6.234850000000       6.149350000000      14.659370000000      -0.148729161252       0.012816813872       0.019606681787
99 1       4.128810000000       8.230730000000      14.871770000000       0.038342720110      -0.105398079951       0.123398545807
100 1       4.235530000000       8.241350000000      10.386490000000      -0.138649654478       0.030478513810      -0.041900161973
101 1       8.270220000000       6.318330000000      12.527320000000       0.037273560306      -0.072861128535      -0.006664087953
102 1       0.179410000000       1.800000000000      12.829640000000       0.197868207735      -0.033902834104       0.019080559226
103 1       6.586110000000       3.920160000000      16.586400000000       0.070619051877      -0.068699986524       0.015174079119
104 1       2.034940000000       4.333130000000       8.425630000000      -0.034716855962       0.022757691529      -0.039255021430
105 1       0.135970000000       4.371630000000      10.278230000000       0.216602377877       0.027076663028       0.044064188455
106 1       0.006660000000       4.038810000000      14.739550000000      -0.181460616417      -0.199961746999      -0.090670610054
107 1       4.177150000000       2.096860000000       8.253330000000      -0.022890351044      -0.072516987410       0.048033430468
108 1       4.135210000000       6.317650000000      16.709580000000      -0.050294781977      -0.102322375851      -0.100762837386
109 1       2.037590000000       8.374530000000      12.683640000000       0.023136699741      -0.000437182746       0.005781823851
110 1       6.362410000000       8.253420000000      12.580590000000       0.023901577133       0.127040393331      -0.025466454925
111 1       2.112440000000       6.285630000000      14.563600000000       0.073735235475      -0.016781489387       0.048338316671
112 1       6.144780000000       2.006250000000      10.451350000000       0.000549413945       0.064308739079       0.068441375397
113 1       4.124310000000       4.257560000000      10.529810000000       0.019509522733       0.018551224580      -0.039899650496
114 1       4.298710000000       4.155970000000      14.822570000000      -0.032788374427       0.001213131146      -0.001589852034
115 1       0.030430000000       2.041550000000      16.729700000000       0.047378568948       0.072410323596       0.021870241002
116 1       8.375320000000       6.327570000000       8.446620000000       0.117293024976      -0.216022807459      -0.045406203897
117 1       0.040790000000       8.298730000000      14.731590000000       0.232285961337       0.085753519161       0.019300083468
118 1       8.229190000000       8.285750000000      10.621680000000      -0.001949417182       0.105061751226      -0.001407833435
119 1       4.277440000000       6.387310000000      12.774540000000      -0.128595741846      -0.025604359252       0.096703113804
120 1       4.171500000000       1.955480000000      12.677010000000       0.060789628973       0.017895824889       0.006433309112
121 1       6.404590000000       1.973500000000      14.761200000000       0.022807390975       0.090833584078      -0.031074731066
122 1       1.999910000000       6.232890000000      10.453260000000       0.063290166344      -0.000818389040       0.038983720156
123 1       2.051880000000       4.020430000000      12.490240000000      -0.035325231353      -0.078132306908       0.039691180530
124 1       6.231590000000       4.221500000000      12.749180000000       0.016256800823      -0.087491548321      -0.077751199126
125 1       6.140700000000       0.108730000000       8.555460000000      -0.105978342468      -0.035562563869       0.086172361089
126 1       2.240880000000       0.052860000000      16.743060000000      -0.086334209069       0.003035491746       0.014940431278
127 1       6.320080000000       6.347960000000      10.569580000000       0.028582134245      -0.042667582869      -0.022039873456
128 1       2.104320000000       1.887810000000      14.649600000000      -0.028657785856      -0.013859999158      -0.012196080232
129 1       2.284630000000       2.011500000000      19.056700000000      -0.064955098349      -0.035553115727       0.062491748201
130 1       6.365640000000       6.340940000000      23.051880000000      -0.038502503667       0.091020166818       0.063717011232
131 1       4.346350000000       0.035710000000      23.102120000000       0.002162525583       0.064533306907       0.020367128960
132 1       4.394280000000       0.069140000000      18.874850000000      -0.069261570239      -0.055609997946      -0.106967533894
133 1       0.111600000000       6.374070000000      21.072490000000       0.105441184950       0.223227204481      -0.040730510785
134 1       0.112460000000       2.083990000000      21.105700000000      -0.036177389427       0.034304383945      -0.011631646181
135 1       6.424800000000       4.177730000000      25.156770000000      -0.031694384769      -0.058552358252       0.074396545733
136 1       2.114410000000       4.059440000000      16.815820000000       0.056060638098      -0.028452865387       0.040173052811
137 1       0.057780000000       4.272230000000      18.802170000000      -0.026298701357       0.084267792452      -0.050380922715
138 1       8.376260000000       4.163430000000      23.250580000000       0.094699476073       0.006700765491       0.020828392113
139 1       4.362080000000       1.953090000000      16.905760000000      -0.051729824968       0.051626827994       0.093898408992
140 1       4.170630000000       6.312430000000      25.154790000000      -0.113695772117      -0.028565356806      -0.044973054216
141 1       2.105570000000       0.145560000000      21.037630000000       0.033052897016       0.147806853869       0.009676947515
142 1       6.514510000000       0.013810000000      20.969820000000       0.057962356189      -0.095286000286      -0.165884447284
143 1       2.267310000000       6.332980000000      23.272520000000      -0.007933502055      -0.016451767158      -0.086378299518
144 1       6.329310000000       2.006350000000      18.857000000000      -0.096714000070       0.117987148200       0.047910673545
145 1       4.225850000000       4.139610000000      19.046760000000       0.017019937253       0.056493988777      -0.100633118563
146 1       4.485260000000       4.486610000000      22.876840000000       0.028013583370       0.133254025395       0.045142625418
147 1       8.351250000000       2.253480000000      25.206420000000       0.120458190096      -0.078567657902      -0.071546352344
148 1       0.022840000000       6.166410000000      16.922860000000       0.001447732727       0.022610268974       0.049601291656
149 1       8.338160000000       0.159930000000      23.054470000000      -0.014265693405      -0.061439014246       0.029010839173
150 1       0.059760000000       8.382230000000      19.020750000000      -0.011646813922      -0.097922305759      -0.041917943041
151 1       4.375990000000       6.383300000000      21.061260000000      -0.022921710487       0.020802164578      -0.077184058745
152 1       4.268580000000       2.211510000000      20.940260000000       0.078207924172       0.017204064860       0.041343954169
153 1       6.441110000000       2.252850000000      23.194500000000      -0.030458798763       0.059137751722       0.020959437548
154 1       2.161750000000       6.347400000000      18.973840000000      -0.085434702574       0.022093727127      -0.030273451610
155 1       2.231610000000       4.109610000000      21.130030000000       0.077594488718      -0.067561055097       0.002974236461
156 1       6.407010000000       4.315410000000      21.058440000000      -0.326194858729       0.178145024812       0.004914204779
157 1       6.275560000000       0.007080000000      16.907970000000      -0.036748964750      -0.094527338440      -0.027185027635
158 1       2.081930000000       0.016030000000       0.017470000000      -0.036672746986       0.030826785291       0.030871607603
159 1       6.644720000000       6.504540000000      19.144290000000       0.122845485209       0.031496644796       0.038429937156
160 1       2.067650000000       2.072610000000      23.053540000000       0.039671913687      -0.015840279887      -0.116113962539
