ITEM: TIMESTEP
0
ITEM: NUMBER OF ATOMS
20
ITEM: BOX BOUNDS xy xz yz pp pp pp
-1.3874819387120001e+00 1.2435526218410001e+01 0.0000000000000000e+00
0.0000000000000000e+00 3.0795494909999999e+00 -1.3874819387120001e+00
0.0000000000000000e+00 5.7012215643369997e+00 0.0000000000000000e+00
ITEM: ATOMS id type x y z fx fy fz
1 2       1.534402735352       1.539770000000       1.790643080779      -0.013872301991       0.000065228057      -0.162262483964
2 2       3.295879200937       0.000000000000       3.910579584874       0.013903274467      -0.000065228234       0.162219484591
3 2       0.015385196282       0.000000000000       4.530378374014      -0.002855931242      -0.000068231103       0.009579975454
4 2       4.814896740008       1.539770000000       1.170844291639       0.002913344120       0.000068231151      -0.009618084149
5 2       7.752167584821       0.000000000000       1.790640177966      -0.013940769686      -0.000065228211      -0.162153326648
6 2       9.513644050406       1.539770000000       3.910576682060       0.013872787456       0.000065228043       0.162250366451
7 2       6.233150045751       1.539770000000       4.530375471201      -0.002873958486       0.000068231184       0.009705241662
8 2      11.032661589477       0.000000000000       1.170841388826       0.002852669930      -0.000068231107      -0.009572342070
9 1       5.813655948691       0.000000000000       1.464399991923      -0.037738863722      -0.000083829717       0.025971795529
10 1      -0.983374012402       1.539770000000       4.236822673730       0.037780473159       0.000083829646      -0.025965434799
11 1       1.375464052347       0.000000000000       3.215601249409      -0.034390909860      -0.000028857177       0.083347938879
12 1       3.454820248582       1.539770000000       2.485611699841       0.034327713021       0.000028857423      -0.083187180422
13 1       2.942471844468       1.539770000000       5.080376622566      -0.045777794563       0.000064685277       0.026000157545
14 1       1.887810091821       0.000000000000       0.620846043087       0.045772356145      -0.000064685367      -0.026064684752
15 1      12.031420798160       1.539770000000       1.464397089110      -0.037778941468       0.000083829646       0.025966010784
16 1       5.234388472427       0.000000000000       4.236829487319       0.037750736466      -0.000083829656      -0.025980617712
17 1       7.593226537176       1.539770000000       3.215608062998      -0.034347296340       0.000028857468       0.083250013125
18 1       9.672582733412       0.000000000000       2.485618513431       0.034401834879      -0.000028857226      -0.083335769925
19 1       9.160236693937       0.000000000000       5.080373719753      -0.045777457515      -0.000064685343       0.026070582541
20 1       8.105572576651       1.539770000000       0.620852856677       0.045779035230       0.000064685245      -0.026221642120
