20
Config_type=bulk_beta_phase Weight=1.0 Lattice="12.082857991 0.000000000 -2.940553536 0.000000000 3.079549491 0.000000000 0.000000000 0.000000000 5.867625879" Energy=-170.66000540 Virial="1.34180 0.00000 -0.00686 0.00000 1.42904 -0.00000 -0.00686 -0.00000 1.39420" pbc="T T T" Properties=species:S:1:pos:R:3:forces:R:3
Ga	      1.91431      1.53977      1.37703         0.025031      0.000052     -0.010894
Ga	      4.12712      0.00000      3.02032        -0.025022     -0.000046      0.010857
Ga	      1.08622      0.00000      4.39826         0.019084     -0.000078      0.011815
Ga	      4.95521      1.53977     -0.00091        -0.019040      0.000086     -0.011872
Ga	      7.95574      0.00000     -0.09325         0.024999     -0.000047     -0.010807
Ga	     10.16855      1.53977      1.55004        -0.025028      0.000052      0.010891
Ga	      7.12765      1.53977      2.92798         0.019107      0.000085      0.011953
Ga	     10.99664      0.00000     -1.47119        -0.019095     -0.000078     -0.011798
O	      5.99506      0.00000      0.04815        -0.002532     -0.000093     -0.006556
O	      0.04637      1.53977      4.34920         0.002532      0.000089      0.006552
O	      2.09683      0.00000      2.79916         0.006834     -0.000028     -0.009656
O	      3.94460      1.53977      1.59818        -0.006836      0.000025      0.009802
O	      4.06035      1.53977      4.24051        -0.003347      0.000045      0.007226
O	      1.98108      0.00000      0.15684         0.003339     -0.000050     -0.007265
O	     12.03649      1.53977     -1.42213        -0.002567      0.000091     -0.006557
O	      6.08780      0.00000      2.87893         0.002563     -0.000095      0.006537
O	      8.13826      1.53977      1.32889         0.006816      0.000023     -0.009705
O	      9.98603      0.00000      0.12791        -0.006800     -0.000028      0.009628
O	     10.10178      0.00000      2.77023        -0.003323     -0.000051      0.007311
O	      8.02251      1.53977     -1.31343         0.003283      0.000047     -0.007462
