ITEM: TIMESTEP
0
ITEM: NUMBER OF ATOMS
40
ITEM: BOX BOUNDS pp pp pp
0.0000000000000000e+00 8.6436928329999994e+00
0.0000000000000000e+00 5.0334936770000001e+00
0.0000000000000000e+00 9.2490053139999997e+00
ITEM: ATOMS id type x y z fx fy fz
1 2       1.360650000000       1.554630000000       8.207510000000       0.032420287806       0.074468063110       0.025799267521
2 2       3.068300000000       4.071370000000       8.207510000000      -0.032555817186       0.074556795062       0.025807327038
3 2       5.682260000000       0.902730000000       7.382420000000      -0.041117797716       0.056374583581      -0.099896731452
4 2       7.390370000000       3.419480000000       7.382430000000       0.041347739467       0.056276593208      -0.100025540881
5 2       4.643760000000       3.406620000000       5.515880000000       0.058783755381      -0.009761285339       0.189407297586
6 2       1.453720000000       3.453810000000       5.637100000000       0.029269642332      -0.240386451388       0.147591704918
7 2       2.975220000000       0.937070000000       5.637100000000      -0.029303215294      -0.240453585224       0.147589829072
8 2       8.428890000000       0.889870000000       5.515880000000      -0.058876084022      -0.009765284200       0.189512549508
9 2       1.360320000000       1.613630000000       2.758010000000      -0.041612129920      -0.055220563207      -0.099808758008
10 2       3.068640000000       4.130370000000       2.758010000000       0.041534166815      -0.055001173977      -0.099700164827
11 2       5.682010000000       0.962830000000       3.583030000000       0.031617909942      -0.075222921750       0.023840244651
12 2       7.390630000000       3.479580000000       3.583030000000      -0.031557461689      -0.075366441847       0.023800527000
13 2       4.107340000000       1.627010000000       0.891510000000      -0.057945233007       0.014210699605       0.192139248093
14 2       5.775400000000       4.096450000000       1.012270000000       0.031232624882       0.243034258981       0.150889942177
15 2       7.297240000000       1.579710000000       1.012270000000      -0.031125185574       0.242977650456       0.150828375420
16 2       0.321610000000       4.143760000000       0.891510000000       0.057890528839       0.014325596609       0.192228755686
17 1       7.217510000000       1.759070000000       4.377620000000       0.056367490266      -0.043710520986       0.051885586709
18 1       0.020250000000       0.759520000000       0.012140000000       0.014104254848      -0.088181982349      -0.021188118005
19 1       7.257990000000       0.114320000000       6.835420000000      -0.081722447589       0.007746501440      -0.022709510354
20 1       7.196100000000       4.914440000000       2.116550000000       0.114191038398       0.080042154647      -0.152793719356
21 1       5.855130000000       4.275820000000       4.377610000000      -0.056418678549      -0.043825447608       0.052014792280
22 1       7.320610000000       3.298150000000       9.234870000000      -0.099127339310      -0.183580022466       0.022533118470
23 1       5.814650000000       2.631070000000       6.835420000000       0.081617048014       0.007671325537      -0.022696749379
24 1       5.876550000000       2.397700000000       2.116550000000      -0.114288653813       0.080030247764      -0.152734663085
25 1       1.430040000000       1.735210000000       4.610580000000       0.098788004790       0.182765357922       0.022476289841
26 1       2.895820000000       0.758140000000       9.002570000000       0.055501296417       0.041699592949       0.049073870631
27 1       1.555450000000       0.118590000000       6.741740000000      -0.115042879043      -0.082813300888      -0.151625741366
28 1       1.492910000000       4.918770000000       2.211240000000       0.079764877307      -0.007056538894      -0.024079503305
29 1       0.087160000000       4.274330000000       4.636630000000      -0.011958173377       0.086922899505      -0.018279368214
30 1       1.533120000000       3.274890000000       9.002570000000      -0.055367600283       0.041698190318       0.049005935341
31 1       0.164390000000       2.403850000000       6.785790000000      -0.091281936763       0.026625587520      -0.142956063744
32 1       8.586230000000       2.629360000000       2.161420000000       0.090824115971      -0.027774328440      -0.142334695711
33 1       4.341790000000       1.757580000000       4.636640000000       0.012021135788       0.086972717758      -0.018354549162
34 1       5.752030000000       0.781410000000       9.234870000000       0.099068978603      -0.183615620049       0.022422190392
35 1       4.264550000000       4.920600000000       6.785790000000       0.091262451272       0.026513459589      -0.142945385805
36 1       4.486420000000       0.112610000000       2.161420000000      -0.090832735864      -0.027728624896      -0.142365374998
37 1       2.998910000000       4.251960000000       4.610580000000      -0.098743101165       0.182709014649       0.022486772180
38 1       4.408690000000       3.276260000000       0.012140000000      -0.013986955911      -0.088089030154      -0.021168134000
39 1       2.873490000000       2.635330000000       6.741740000000       0.115036850036      -0.082759870653      -0.151563509471
40 1       2.936050000000       2.402030000000       2.211240000000      -0.079780771099      -0.007308295896      -0.024107343392
