ITEM: TIMESTEP
0
ITEM: NUMBER OF ATOMS
20
ITEM: BOX BOUNDS xy xz yz pp pp pp
-1.3930429887389999e+00 1.2485368007372999e+01 0.0000000000000000e+00
0.0000000000000000e+00 3.0918923750000000e+00 -1.3930429887389999e+00
0.0000000000000000e+00 5.7240721521460003e+00 0.0000000000000000e+00
ITEM: ATOMS id type v_vir_xx v_vir_yy v_vir_zz v_vir_xy v_vir_xz v_vir_yz
1 2      -0.902168952262      -0.275636457417      -3.241786859492       0.000003853409       0.466613993787       0.000006747222
2 2      -0.902141607652      -0.275645463141      -3.241684853142       0.000003852241       0.466618880945       0.000006742789
3 2      -2.557195680066      -2.557334156807      -0.823591140984      -0.000023704426       0.065752629348      -0.000006963981
4 2      -2.557167337868      -2.557272975619      -0.823724299484      -0.000023701562       0.065726770127      -0.000006962929
5 2      -0.902199277602      -0.275654212329      -3.241787824412      -0.000003853539       0.466630335238      -0.000006746421
6 2      -0.902165836473      -0.275649635187      -3.241659250120      -0.000003852112       0.466614195312      -0.000006741204
7 2      -2.557150089031      -2.557260849247      -0.823658393892       0.000023702197       0.065781176874       0.000006964150
8 2      -2.557153903144      -2.557273579387      -0.823748578611       0.000023702545       0.065735361136       0.000006964026
9 1       1.505292293401       0.350209549849      -0.148853143276      -0.000034334189       0.455798096233      -0.000010812801
10 1       1.505363751074       0.350192508430      -0.148815660776      -0.000034339049       0.455782680416      -0.000010814804
11 1       1.577494598071       1.291705032732       2.851484091576      -0.000011263809      -0.273404939670      -0.000001878276
12 1       1.577482660881       1.291658470263       2.851448967714      -0.000011263846      -0.273415934913      -0.000001881861
13 1       0.608757041238       1.546277338587       1.648479203985      -0.000006205439      -0.624471319497       0.000008233405
14 1       0.608738772326       1.546246362304       1.648622822383      -0.000006206170      -0.624454328050       0.000008232372
15 1       1.505340358873       0.350228829834      -0.148824048664       0.000034333555       0.455802904389       0.000010811870
16 1       1.505360829677       0.350201793687      -0.148859375607       0.000034336371       0.455798973866       0.000010814709
17 1       1.577506554204       1.291697970312       2.851481992151       0.000011262684      -0.273375016639       0.000001877560
18 1       1.577498844385       1.291678227652       2.851483676961       0.000011262430      -0.273390243548       0.000001882437
19 1       0.608768673162       1.546300454850       1.648483961841       0.000006205008      -0.624501164949      -0.000008233158
20 1       0.608739302391       1.546253875158       1.648590207129       0.000006206440      -0.624482969058      -0.000008232500
