ITEM: TIMESTEP
0
ITEM: NUMBER OF ATOMS
160
ITEM: BOX BOUNDS pp pp pp
0.0000000000000000e+00 8.4793230770000001e+00
0.0000000000000000e+00 8.4793230770000001e+00
0.0000000000000000e+00 2.5437969232000000e+01
ITEM: ATOMS id type v_vir_xx v_vir_yy v_vir_zz v_vir_xy v_vir_xz v_vir_yz
1 2      -2.636044460978      -0.525388132957      -0.572608627666       0.047477357872      -0.230352575815      -0.163171450555
2 2      -2.637172889447      -1.827831434598      -2.400586635893      -0.309570266096       0.337733498932       0.212507713429
3 2      -1.691866545935      -2.483731606138      -2.191383011814       0.380821971929       0.514608795349       0.011840304906
4 2      -0.227889032327      -2.259941396331      -2.288010367191       0.213322103349      -0.269780768163       0.512068478562
5 2      -2.337369560852      -0.280139809325      -2.082067944645       0.038669039260      -0.115118940768       0.091968322552
6 2      -2.565307780858      -0.542690933588      -1.146723201858       0.253411573530      -0.061796886189      -0.213431964786
7 2      -1.879233918337      -2.774955550308      -0.590537142244      -0.627177331005       0.076695798692      -0.106955805356
8 2      -0.167358564850      -3.146746877064      -2.160455515918       0.079836610808      -0.248532178516      -0.347643584338
9 2      -3.161257829936      -2.001241419418      -0.538284077671      -0.535166805038       0.032291127324      -0.325287737507
10 2      -1.770464334223      -2.587348015797      -2.202046273778       0.368696566569       0.187139713974      -0.268698155140
11 2      -3.170215656600      -0.561537033547      -2.341811175366      -0.010079584177       0.223811275212      -0.044971851296
12 2      -0.111239195273      -2.293977594278      -2.257264399637       0.064083892770       0.439047458678       0.404136501836
13 2      -0.716650144758      -2.620627803607      -1.376990649300      -0.296398565291       0.481379617494      -0.195700777108
14 2      -2.232776297192      -0.289384699219      -2.150465903735       0.059297308990      -0.105165177656       0.066830937663
15 2      -2.574920367556      -1.762478699254      -2.166849733513       0.442545116147       0.148786430928       0.462837240676
16 2       0.133631714061      -2.977107938777      -2.464860493604      -0.166223039651      -0.292387569936      -0.102640900286
17 2      -2.650746768389      -2.060557626572      -0.651349979252       0.524634118935      -0.015457512086       0.093910492385
18 2      -0.547358829977      -2.631745923057      -1.179143429852       0.138630945367      -0.215675560018      -0.243248389373
19 2      -1.886834203623      -2.771948642611      -0.626832790845      -0.612947755434       0.128012031344      -0.103909232276
20 2      -3.080780424617      -0.021721458312      -2.500484504209       0.236335381876       0.164281528185       0.465350392018
21 2      -1.467026927733      -1.569774500322       0.600186165076      -0.360979503028       0.058577360275       0.102735070452
22 2      -0.889740071994      -0.986180819025      -2.666984310393      -0.455155740667      -0.586360859796       0.189839741927
23 2      -2.491464284735       0.181117653679       0.379056640539       0.039697437257       0.164783034933       0.487726917933
24 2      -1.417919394541      -2.144503337097      -1.836459102291      -0.534097725473       1.035805073432       0.735781744202
25 2      -2.250540116408      -0.365047240711      -0.850904250905      -0.118224362837       0.139171028056       0.956063042308
26 2      -1.248184325198       0.706812730088      -1.139647686128       0.175773182900       0.063051004640      -0.482534166960
27 2      -1.118422407886       1.093408524280      -1.500779971876      -0.249269558779       0.108077317628       0.207247286558
28 2      -1.877519858617      -1.719853160606      -1.985812504837       0.606677305009       0.858785770184      -1.001657301220
29 2       0.705794320960      -1.131543065197      -1.022283710878       0.021275458265       0.363827629986      -0.298673054103
30 2       0.312182406401      -2.376932607449       0.622593172709       0.499445884819       0.024388654848       0.327971717115
31 2      -0.865250102279      -1.111795970630      -2.732254949461       0.371926516098       0.830888541097       0.115011159443
32 2      -0.737473501318      -0.710837235993      -2.748296415165       0.350275442793      -0.469356378050       0.301160502879
33 2      -1.764877905903      -1.886537201709      -2.284579650930       0.495868722115       0.014432608800       0.648298739406
34 2      -1.948700061107      -1.691318901791      -2.607568595471      -0.513751787246      -0.172242545054       0.799922844427
35 2      -1.018592898847      -0.786152380416      -2.181098929380       0.293785856687       0.252857712086       0.881900689660
36 2      -2.153997280914      -0.688412937006      -0.919813593144       0.851795756244      -0.177703417756       0.284261204550
37 2      -1.280887101393      -1.597262175385       0.576502156036      -0.282848991998       0.571651356908       0.233102430099
38 2      -1.626638807474      -1.969361466656      -2.139005163956       0.376497091926      -0.307482035185      -0.064916262947
39 2      -1.236209309189       1.016403667058      -1.444194615932       0.158653031474      -0.213854084637      -0.437356534435
40 2       0.946513736333      -1.423286745202      -1.611669490423      -0.155339914251      -0.281438788858       0.035416776228
41 2      -2.115207321266      -1.904470776455      -1.366532783024      -0.015379345589      -0.871473548215       1.003462060146
42 2      -0.944845966116      -2.121648488939      -0.063495659756       0.506625052312      -0.731769209620      -0.285970884716
43 2      -0.927118904583      -0.943549361623      -2.783066522279      -0.367725759978       0.830427862794       0.019273841351
44 2      -1.690131394256      -2.158587195518      -2.354018780718       0.506286717666      -0.444233949810      -0.002687144701
45 2      -2.020763614647      -1.730031070860      -2.291256312731       0.436452479788       0.016963547548      -0.392079846551
46 2      -1.949620641545      -1.835743213770      -2.003263146279      -0.270292664916       0.164767130672      -0.387977461666
47 2      -1.677026006234      -1.906910429073      -2.069275209375      -0.462884194507      -0.512606105513       0.075334752651
48 2      -0.976962328954      -2.247364632528      -0.385827784121      -0.448101208879      -0.881541322801       0.313044022367
49 2      -1.669906067933      -1.914525982517      -2.241883348370      -0.531297773344      -0.554575461446       0.199636505724
50 2       0.622706353164      -1.302092320225      -1.402794702717      -0.176889047486       0.371737682432      -0.063323334974
51 2       0.847610328065      -1.213299817581      -1.420452474249       0.135305254166      -0.369919590631      -0.114080760063
52 2      -1.879032438678      -0.675045211537      -0.614969865533      -0.002714507680       0.266498415252      -0.519733282551
53 2      -0.871150769257      -1.984383988093      -0.552935541859      -0.647066649784       0.069256935101      -0.371485872797
54 2      -1.866241738171      -0.665347933311      -0.535547129016       0.025162603462       0.301692212574      -0.526620072813
55 2      -0.758224380870      -0.688038347719      -2.105464778283      -0.187021419069      -0.034381923310      -0.503955557725
56 2      -1.918166864822      -1.893077055825      -1.259338271135      -0.065683956460      -0.928718820425      -1.052134278357
57 2      -0.295569228410      -2.273320187311      -0.831943450976      -0.134187358499       0.962616716268       0.021544864597
58 2      -1.153939552092      -0.838232193252      -2.674910647662       0.427588528843       0.210289575221       0.802805103507
59 2      -0.688433608190      -0.689051869213      -2.139132671883      -0.207892886185       0.108763590305      -0.468987617043
60 2      -1.073574006107       1.018246813569      -1.476618270617      -0.234258838660       0.172490630472       0.075925635259
61 2       0.754673019316      -1.123200346956      -1.135956899563       0.016507561970       0.016267274061       1.130575903517
62 2      -0.920062695528       0.532149931658      -0.886853782661       0.057969131556       1.103533107842       0.196770674960
63 2       0.529224749372      -1.007587470995      -0.859070332720       0.020514331495      -0.048401385986      -1.219166022655
64 2      -1.003539118354       0.672424119512      -0.968567386848       0.058318177927       1.138151602887       0.050017997182
65 1       2.719401010110       2.300393503779       2.052330094447       0.403133309027       0.121678550795       0.175819870834
66 1       2.101950502738       2.213481584702       2.634138470785       0.460152449989       0.357109309795       0.305690529662
67 1       0.228600298355       1.559887061459       2.332293302678      -0.217399455529      -0.258884843962      -0.589344054539
68 1       1.355238688900       1.622864431708      -0.157513569302       0.386224726316      -0.044618310946       0.020184822609
69 1       1.902018312269       0.403509199649       1.817842596199       0.076209102890       0.419031701146       0.024503163033
70 1       1.896344210081       0.543307304172       1.804052361692      -0.150602020635       0.430908030778      -0.228901627975
71 1       2.044521597936       2.193482347491       1.613729374469      -0.429483975326      -0.321468729036       0.305511419004
72 1       0.889471231541       1.419328113750       0.871071180693      -0.100117388254       0.378047119567      -0.032108555084
73 1       2.231347074483       2.164241985359       1.746526773008       0.404045935298      -0.582407106959      -0.334119795270
74 1       0.724037822260       1.469508217017       1.107819115211       0.229531342345       0.412611234231       0.004827995622
75 1       1.899227554921       0.440648182298       1.814597814286       0.094473894991       0.510930186444       0.047892805087
76 1       2.141331647389       1.812603896397       1.821438155270      -0.646811502570       0.697258659188      -0.805508526785
77 1       1.106600912203       1.921460340298       0.695681251248      -0.243779172979      -0.300575507801       0.120517478607
78 1      -0.062925225362       1.768138677298       1.869340188050       0.084835042058      -0.249848077130       0.412774936997
79 1       1.857253978938       0.465298974789       1.926536891449      -0.060447952523       0.467232710285      -0.128864311774
80 1       2.194173900748       2.044318139675       2.235915319368       0.696876179432       0.765843778742       0.737345311637
81 1       2.241517960581       2.185382907341       1.750678308218       0.422765807776      -0.602112703945      -0.334713467984
82 1       2.309690829394       2.172784897766       1.856997622401       0.245107703317      -0.387764199558      -0.254728590462
83 1       2.701975926620       2.309079992457       2.129137598410      -0.393579507666       0.161270967092      -0.440994046002
84 1       2.137446256748       2.097277151199       2.916926150775      -0.152333130242       0.362428106383      -0.591469957750
85 1       0.948045336347       1.619173374068       0.921047312008       0.122506594451      -0.461461679445      -0.077711303056
86 1       1.449580502571       1.631412466076      -0.052139247784       0.409777911611      -0.049702932520       0.011868387534
87 1       2.343106455499       2.420335328965       2.437053018628      -0.459049012381       0.366740640865      -0.206417580245
88 1       2.153558886772       2.123846583134       2.919756588197      -0.144458680582       0.387029099186      -0.696132230314
89 1       1.786824843300       2.368692945519       2.667996601445       0.124355620348       0.463410702145       0.672674838332
90 1       2.784200449879       2.293902178195       2.085606357551       0.409331922580       0.123950455158       0.183439516056
91 1       0.762847946682       1.320360295503       0.940943245777      -0.139539964408       0.387460759489      -0.039273917963
92 1       1.994693133961       2.178195428919       2.340509376227      -0.230460229123      -0.418242293027       0.449425867438
93 1      -0.203646470121       1.689275128735       1.810547747095       0.141005623092      -0.106697379949       0.362724266859
94 1       1.622864739603       1.764527566275       0.545416664450      -0.367387000185      -0.382259577573      -0.044510662175
95 1       2.157732921276       2.029305234969       2.148579665573       0.701008133925       0.789910238981       0.770219699650
96 1       2.036337608564       0.783609872870       1.647613867140       0.201191287320       0.113572885406       0.021823930331
97 1       0.893512810592       1.955846736481       1.649090428119       0.210052760533       0.227405484027       0.048137871281
98 1       2.030160781037       2.083387603830       1.991416824629       0.404369724588       0.663948659290       0.666385579000
99 1       2.260397921841       1.743136923531       1.813957639512       0.603420045041      -0.739040231462      -0.558209315857
100 1       1.517608579062       0.329571235678       2.421283550716      -0.190622988067      -0.604428884819      -0.392225647371
101 1       2.237262002939       2.376475673082       2.089622202513      -0.350692660137       0.308763364688      -0.538040586487
102 1       1.343634593658       0.633973928839       0.509119899450      -0.262095266145       0.259710917641       0.159410459074
103 1       1.039138464152       0.550278466843       0.997246142737      -0.008410981770      -0.193376782415      -0.255783920481
104 1       2.335687792489       2.650103189702       2.218523423134      -0.312527722847      -0.314787536059       0.101646362018
105 1       1.518104187865       0.625842280031       1.145369862256       0.183036945220       0.034717830736       0.362394254162
106 1       2.041112986359       2.605144668909       2.239404822120       0.410974255768      -0.104710910299      -0.395121670275
107 1       1.881400621124       1.738137046688       0.717558280430      -0.390688654807       0.193631791781      -0.518120747094
108 1       0.468754980127       1.590285005651       2.172922666661       0.117938614121      -0.044863524347      -0.578296577910
109 1       2.356969254427       1.813259417253       2.799823551859      -0.048593393671      -0.405121100881       0.351299318214
110 1       2.166486516512       2.000818555332       2.553059898073      -0.415282934221      -0.077905215465       0.064992008167
111 1       1.522675461688       1.972697099502       0.739188698155       0.360662752037       0.129192072056       0.497483454734
112 1       0.362486005746       1.935565355856       1.852616781535      -0.006907604015       0.007213494574       0.436185282338
113 1       1.620065239359       1.003349729593       1.154054345602       0.076467169634       0.195850041245      -0.441349108518
114 1       1.607315732115       1.739827898837       0.185387465990       0.177734677793       0.278062711247      -0.244864725016
115 1       2.218817279676       2.052168336550       2.749258613433      -0.171636580205       0.654620926599      -0.284723222463
116 1       2.250091814677       2.143549345688       1.714893622310      -0.517708504011       0.368854896213      -0.423784499879
117 1       2.003263925277       2.055796972583       2.151385076062       0.599253287215      -0.391923074319      -0.637785671432
118 1       2.352188230862       2.402627314710       1.912457162151       0.143759515034      -0.166883939004      -0.489676592842
119 1       1.515947477491       0.216943988754       2.271494083428       0.175895062712       0.623137959619      -0.446104781855
120 1       1.885111457963       1.119953526136       1.133076726926      -0.200145130600       0.324806809540      -0.505459314909
121 1       2.311134932042       2.273666578817       1.902687423715       0.497765330628       0.453574270463       0.426018221943
122 1       2.434611549779       1.846952199015       2.831744209637       0.048629364530       0.722105648016       0.375641925618
123 1       0.594329398877       1.997887909894       1.452879226070      -0.128475882275       0.075400631535       0.192311251325
124 1       0.525991775786       2.016906774313       2.290094463878       0.090749507474       0.293101716914       0.323843758398
125 1       1.772387586488       2.189136991049       1.840681185024      -0.623947357392      -0.748971688124       0.654257605345
126 1       1.816656998145       0.020251740014       2.015226409401       0.152949882527      -0.389090052163       0.252437854925
127 1       2.235885622039       2.233936650939       2.827394899164       0.381083906409       0.351698567738       0.258100766888
128 1       2.341401264433       2.307313286912       1.995140729795       0.541472548847       0.474407525872       0.186966253048
129 1       1.652101458207      -0.227263097187       1.874832361001      -0.153263424292       0.474645612159       0.185974819136
130 1       1.903227133153       2.257977778707       2.684661360309       0.181512724057       0.229425804566       0.633977205245
131 1       0.875442299121       1.974662508987       0.976711459410       0.188116961654      -0.580043126952      -0.211439603297
132 1       2.428321794425       2.287560294974       2.289197463874       0.397247759822      -0.098830722634      -0.050825621578
133 1       2.284614753683       2.477895528238       2.464347887591      -0.615278479272       0.636626231208      -0.255790425059
134 1       1.846659295099       2.239787425654       2.214699338441      -0.654391585827       0.585702245751      -0.916219294997
135 1       1.949147948271       2.161263151848       2.500178548003      -0.244030445448      -0.421367333323       0.448575047705
136 1       1.886306241980       1.178402850026       0.856012304113      -0.232592828468       0.170867789368       0.549243868845
137 1       0.351722366541       1.885252236955       1.913072481896       0.138546373391       0.084051673352      -0.173578587730
138 1       2.238772007602       2.386394696402       2.213065658530       0.289323121733      -0.383509507740      -0.311341615476
139 1       2.388502714628       2.195556836749       2.352743057584      -0.434017152581       0.328599431558      -0.045451369907
140 1       2.005806831389       0.570340991650       1.888027114511      -0.178116238656       0.348284947664      -0.197958802895
141 1       1.629511495253       1.625937777114       0.036943719498      -0.419610112689      -0.360097516923      -0.273614409713
142 1       1.794342934805       2.148282715756       1.475123474498      -0.482289975920      -0.281209722642       0.632156360044
143 1       2.029914782374       0.552651507600       1.463313107382       0.208121801150       0.216985215322       0.105153391028
144 1       2.210292232387       2.151087458021       2.410252010383       0.303095773887       0.562342830425       0.595603017277
145 1       0.584351985340       1.975490666436       2.492760718360      -0.145554217435       0.247862270775      -0.258465635452
146 1       0.340195624694       1.326328689527       1.139800822761       0.040579209305       0.322189061041      -0.054720704232
147 1       2.416828149657       2.445162547848       2.463374420463      -0.490349233242       0.378233380975      -0.243647923950
148 1       0.619410229417       1.783860032056       1.790079436241      -0.095337597370       0.320220558866      -0.077728947820
149 1      -0.062398860228       1.810299706577       1.736804045107      -0.189018897535      -0.141111062673      -0.378272471925
150 1       2.081200954998       2.153840001187       2.770013479111       0.182886801120      -0.544260510379      -0.206861324387
151 1       2.780631981962       2.401903799734       2.168927676790      -0.256651987456       0.168992141075      -0.138264658621
152 1       2.254544197986       2.377080281616       1.997363159958      -0.519979327989       0.579698727736      -0.515734786649
153 1       2.051755793180       1.994067920804       2.536296869668       0.441444199930       0.291145186915       0.280734862825
154 1       1.948564125204       1.174538138595       0.862412884821       0.264981507175       0.308508626944       0.464511220428
155 1       1.635343440905       1.679114669598       0.052182526601      -0.283911626993      -0.044260034713       0.144000436983
156 1       1.817960559218       2.152854973994       1.783618387659      -0.439530283878      -0.312268115940       0.668844583047
157 1       2.355767028843       2.185590232884       2.382363202770      -0.148795872030      -0.281669153505       0.534466781372
158 1       1.132596241772       1.920179169070       0.736963500126      -0.239762262513      -0.435622217180       0.165265078156
159 1       1.443909729468       0.713808191897       0.509552620529       0.132414780845       0.089507987008      -0.033476606944
160 1       1.967239516404       0.462403966115       2.192751175272      -0.091527766119       0.291123964978       0.064549591929
