ITEM: TIMESTEP
0
ITEM: NUMBER OF ATOMS
20
ITEM: BOX BOUNDS xy xz yz pp pp pp
-1.3735793142799999e+00 1.2310921747694000e+01 0.0000000000000000e+00
0.0000000000000000e+00 3.0486922820000002e+00 -1.3735793142799999e+00
0.0000000000000000e+00 5.6440950962040004e+00 0.0000000000000000e+00
ITEM: ATOMS id type c_pe_atom
1 2      -4.782370162612
2 2      -4.782372562341
3 2      -4.250255068740
4 2      -4.250260397139
5 2      -4.782386643778
6 2      -4.782375292224
7 2      -4.250266312016
8 2      -4.250260826902
9 1     -11.294262865099
10 1     -11.294279141808
11 1     -11.080066974137
12 1     -11.080064570227
13 1     -11.212051452944
14 1     -11.212048772479
15 1     -11.294279625408
16 1     -11.294272477305
17 1     -11.080050534144
18 1     -11.080056064246
19 1     -11.212059570641
20 1     -11.212055527108
