ITEM: TIMESTEP
0
ITEM: NUMBER OF ATOMS
80
ITEM: BOX BOUNDS pp pp pp
0.0000000000000000e+00 9.5426977789999992e+00
0.0000000000000000e+00 9.5426977789999992e+00
0.0000000000000000e+00 9.5426977789999992e+00
ITEM: ATOMS id type c_pe_atom
1 2      -5.443469233471
2 2      -5.290318125234
3 2      -5.290315238010
4 2      -5.290317623293
5 2      -5.290315238010
6 2      -5.290316233348
7 2      -5.290317623293
8 2      -5.443469233471
9 2      -5.443469532834
10 2      -5.443469233471
11 2      -5.290316233348
12 2      -5.290317623293
13 2      -5.290318125234
14 2      -5.290316233348
15 2      -5.290318125234
16 2      -5.290315238010
17 2      -5.443468933963
18 2      -5.290316623216
19 2      -5.290317130007
20 2      -5.290317125425
21 2      -5.290317130007
22 2      -5.290316134940
23 2      -5.290317125425
24 2      -5.443468933963
25 2      -5.443468634263
26 2      -5.443468933963
27 2      -5.290316134940
28 2      -5.290317125425
29 2      -5.290316623216
30 2      -5.290316134940
31 2      -5.290316623216
32 2      -5.290317130007
33 1     -10.593279404405
34 1     -10.593266671547
35 1     -10.593284718002
36 1     -10.593279907272
37 1     -10.593289261274
38 1     -10.593291002441
39 1     -10.593284718002
40 1     -10.593289261274
41 1     -10.593291002441
42 1     -10.593267156001
43 1     -10.593284718002
44 1     -10.593279404405
45 1     -10.593273336721
46 1     -10.593289261274
47 1     -10.593266671547
48 1     -10.593279907273
49 1     -10.593267156001
50 1     -10.593273336721
51 1     -10.593267156001
52 1     -10.593266671547
53 1     -10.593279404405
54 1     -10.593273336721
55 1     -10.593279907273
56 1     -10.593291002441
57 1     -10.593277822052
58 1     -10.593266356290
59 1     -10.593282709003
60 1     -10.593280597427
61 1     -10.593288519333
62 1     -10.593293700218
63 1     -10.593282709003
64 1     -10.593288519333
65 1     -10.593293700218
66 1     -10.593272794412
67 1     -10.593282709003
68 1     -10.593277822052
69 1     -10.593276967409
70 1     -10.593288519333
71 1     -10.593266356290
72 1     -10.593280597427
73 1     -10.593272794412
74 1     -10.593276967409
75 1     -10.593272794412
76 1     -10.593266356290
77 1     -10.593277822052
78 1     -10.593276967409
79 1     -10.593280597427
80 1     -10.593293700218
