80
Config_type=bulk_delta_phase Weight=1.0 Lattice="9.542697779 0.000000000 0.000000000 0.000000000 9.542697779 0.000000000 0.000000000 0.000000000 9.542697779" Energy=-679.52315460 Virial="-36.86819 0.00003 -0.00000 0.00003 -36.86821 -0.00002 -0.00000 -0.00002 -36.86815" pbc="T T T" Properties=species:S:1:pos:R:3:forces:R:3
Ga	      7.15702      2.38567      2.38567         0.000061      0.000087      0.000093
Ga	      7.15702      4.42075      4.77135         0.000046     -0.002536     -0.000048
Ga	      0.00000      7.15702      0.35060        -0.000026      0.000049      0.002435
Ga	      0.00000      2.38567      4.42075        -0.000053      0.000093     -0.002538
Ga	      0.35060      0.00000      7.15702         0.002429     -0.000022      0.000053
Ga	      0.35060      4.77135      2.38567         0.002434     -0.000070      0.000098
Ga	      2.38567      4.42075      0.00000         0.000089     -0.002546     -0.000040
Ga	      2.38567      7.15702      2.38567         0.000095      0.000067      0.000089
Ga	      2.38567      2.38567      2.38567         0.000077      0.000071      0.000065
Ga	      2.38567      2.38567      7.15702         0.000087      0.000091      0.000071
Ga	      2.38567      0.35060      4.77135         0.000095      0.002429     -0.000067
Ga	      4.42075      0.00000      2.38567        -0.002531     -0.000046      0.000088
Ga	      4.42075      4.77135      7.15702        -0.002539     -0.000049      0.000043
Ga	      4.77135      2.38567      0.35060        -0.000069      0.000094      0.002445
Ga	      4.77135      7.15702      4.42075        -0.000043      0.000047     -0.002536
Ga	      7.15702      0.35060      0.00000         0.000046      0.002441     -0.000030
Ga	      2.38567      7.15702      7.15702         0.000075      0.000089      0.000084
Ga	      2.38567      9.19210      0.00000         0.000056     -0.002537     -0.000032
Ga	      4.77135      2.38567      5.12195        -0.000052      0.000052      0.002406
Ga	      4.77135      7.15702      9.19210        -0.000074      0.000089     -0.002540
Ga	      5.12195      4.77135      2.38567         0.002410     -0.000054      0.000049
Ga	      5.12195      0.00000      7.15702         0.002406     -0.000052      0.000085
Ga	      7.15702      9.19210      4.77135         0.000085     -0.002543     -0.000073
Ga	      7.15702      2.38567      7.15702         0.000096      0.000072      0.000087
Ga	      7.15702      7.15702      7.15702         0.000062      0.000063      0.000059
Ga	      7.15702      7.15702      2.38567         0.000077      0.000091      0.000082
Ga	      7.15702      5.12195      0.00000         0.000082      0.002409     -0.000052
Ga	      9.19210      4.77135      7.15702        -0.002546     -0.000072      0.000088
Ga	      9.19210      0.00000      2.38567        -0.002547     -0.000029      0.000058
Ga	      0.00000      7.15702      5.12195        -0.000045      0.000086      0.002411
Ga	      0.00000      2.38567      9.19210        -0.000028      0.000053     -0.002549
Ga	      2.38567      5.12195      4.77135         0.000051      0.002413     -0.000049
O	      8.46530      5.84999      1.51502         0.005879      0.001020      0.006764
O	      8.46530      3.69271      3.25632         0.005876     -0.001052     -0.006685
O	      8.46406      1.51502      1.07740        -0.001060      0.006728     -0.005951
O	      8.46406      3.25632      5.84875        -0.001063     -0.006677     -0.005973
O	      1.07864      3.25632      1.07740         0.001032     -0.006666     -0.005973
O	      1.07864      1.51502      5.84875         0.001008      0.006753     -0.005980
O	      1.07740      8.46406      1.51502        -0.005959     -0.001043      0.006752
O	      1.07740      1.07864      3.25632        -0.005978      0.001004     -0.006676
O	      1.51502      5.84875      1.07864         0.006753     -0.005982      0.000996
O	      1.51502      3.69395      3.69271         0.006778      0.005915     -0.001028
O	      1.51502      1.07740      8.46406         0.006758     -0.005945     -0.001053
O	      1.51502      8.46530      5.84999         0.006777      0.005880      0.001014
O	      3.25632      3.69395      5.84999        -0.006710      0.005933      0.001013
O	      3.25632      1.07740      1.07864        -0.006672     -0.005950      0.001004
O	      3.25632      8.46530      3.69271        -0.006719      0.005882     -0.001046
O	      3.25632      5.84875      8.46406        -0.006685     -0.005976     -0.001050
O	      3.69395      3.69271      1.51502         0.005910     -0.001050      0.006757
O	      3.69395      5.84999      3.25632         0.005905      0.001004     -0.006699
O	      3.69271      1.51502      3.69395        -0.001052      0.006775      0.005907
O	      3.69271      3.25632      8.46530        -0.001052     -0.006704      0.005902
O	      5.84999      1.51502      8.46530         0.001026      0.006779      0.005911
O	      5.84999      3.25632      3.69395         0.001025     -0.006683      0.005918
O	      5.84875      8.46406      3.25632        -0.005949     -0.001061     -0.006688
O	      5.84875      1.07864      1.51502        -0.005973      0.001020      0.006723
O	      3.69395      1.07864      6.28637         0.005900      0.001022      0.006759
O	      3.69395      8.46406      8.02767         0.005890     -0.001065     -0.006707
O	      3.69271      6.28637      5.84875        -0.001057      0.006729     -0.005966
O	      3.69271      8.02767      1.07740        -0.001051     -0.006696     -0.005958
O	      5.84999      8.02767      5.84875         0.001019     -0.006702     -0.005964
O	      5.84999      6.28637      1.07740         0.001020      0.006735     -0.005956
O	      5.84875      3.69271      6.28637        -0.005952     -0.001030      0.006746
O	      5.84875      5.84999      8.02767        -0.005964      0.001003     -0.006694
O	      6.28637      1.07740      5.84999         0.006754     -0.005946      0.001012
O	      6.28637      8.46530      8.46406         0.006781      0.005878     -0.001052
O	      6.28637      5.84875      3.69271         0.006760     -0.005978     -0.001040
O	      6.28637      3.69395      1.07864         0.006751      0.005918      0.001010
O	      8.02767      8.46530      1.07864        -0.006708      0.005902      0.001025
O	      8.02767      5.84875      5.84999        -0.006699     -0.005979      0.001004
O	      8.02767      3.69395      8.46406        -0.006723      0.005905     -0.001063
O	      8.02767      1.07740      3.69271        -0.006675     -0.005954     -0.001050
O	      8.46530      8.46406      6.28637         0.005877     -0.001074      0.006765
O	      8.46530      1.07864      8.02767         0.005875      0.001028     -0.006709
O	      8.46406      6.28637      8.46530        -0.001070      0.006763      0.005881
O	      8.46406      8.02767      3.69395        -0.001052     -0.006713      0.005895
O	      1.07864      6.28637      3.69395         0.001024      0.006757      0.005933
O	      1.07864      8.02767      8.46530         0.001026     -0.006713      0.005895
O	      1.07740      3.69271      8.02767        -0.005938     -0.001042     -0.006690
O	      1.07740      5.84999      6.28637        -0.005953      0.001017      0.006728
