ITEM: TIMESTEP
0
ITEM: NUMBER OF ATOMS
80
ITEM: BOX BOUNDS pp pp pp
0.0000000000000000e+00 9.3168351089999994e+00
0.0000000000000000e+00 9.3168351089999994e+00
0.0000000000000000e+00 9.3168351089999994e+00
ITEM: ATOMS id type v_vir_xx v_vir_yy v_vir_zz v_vir_xy v_vir_xz v_vir_yz
1 2       0.000000000000       0.000000000000       0.000000000000       0.000000000000       0.000000000000       0.000000000000
2 2       0.000000000000       0.000000000000       0.000000000000       0.000000000000       0.000000000000       0.000000000000
3 2       0.000000000000       0.000000000000       0.000000000000       0.000000000000       0.000000000000       0.000000000000
4 2       0.000000000000       0.000000000000       0.000000000000       0.000000000000       0.000000000000       0.000000000000
5 2       0.000000000000       0.000000000000       0.000000000000       0.000000000000       0.000000000000       0.000000000000
6 2       0.000000000000       0.000000000000       0.000000000000       0.000000000000       0.000000000000       0.000000000000
7 2       0.000000000000       0.000000000000       0.000000000000       0.000000000000       0.000000000000       0.000000000000
8 2       0.000000000000       0.000000000000       0.000000000000       0.000000000000       0.000000000000       0.000000000000
9 2       0.000000000000       0.000000000000       0.000000000000       0.000000000000       0.000000000000       0.000000000000
10 2       0.000000000000       0.000000000000       0.000000000000       0.000000000000       0.000000000000       0.000000000000
11 2       0.000000000000       0.000000000000       0.000000000000       0.000000000000       0.000000000000       0.000000000000
12 2       0.000000000000       0.000000000000       0.000000000000       0.000000000000       0.000000000000       0.000000000000
13 2       0.000000000000       0.000000000000       0.000000000000       0.000000000000       0.000000000000       0.000000000000
14 2       0.000000000000       0.000000000000       0.000000000000       0.000000000000       0.000000000000       0.000000000000
15 2       0.000000000000       0.000000000000       0.000000000000       0.000000000000       0.000000000000       0.000000000000
16 2       0.000000000000       0.000000000000       0.000000000000       0.000000000000       0.000000000000       0.000000000000
17 2       0.000000000000       0.000000000000       0.000000000000       0.000000000000       0.000000000000       0.000000000000
18 2       0.000000000000       0.000000000000       0.000000000000       0.000000000000       0.000000000000       0.000000000000
19 2       0.000000000000       0.000000000000       0.000000000000       0.000000000000       0.000000000000       0.000000000000
20 2       0.000000000000       0.000000000000       0.000000000000       0.000000000000       0.000000000000       0.000000000000
21 2       0.000000000000       0.000000000000       0.000000000000       0.000000000000       0.000000000000       0.000000000000
22 2       0.000000000000       0.000000000000       0.000000000000       0.000000000000       0.000000000000       0.000000000000
23 2       0.000000000000       0.000000000000       0.000000000000       0.000000000000       0.000000000000       0.000000000000
24 2       0.000000000000       0.000000000000       0.000000000000       0.000000000000       0.000000000000       0.000000000000
25 2       0.000000000000       0.000000000000       0.000000000000       0.000000000000       0.000000000000       0.000000000000
26 2       0.000000000000       0.000000000000       0.000000000000       0.000000000000       0.000000000000       0.000000000000
27 2       0.000000000000       0.000000000000       0.000000000000       0.000000000000       0.000000000000       0.000000000000
28 2       0.000000000000       0.000000000000       0.000000000000       0.000000000000       0.000000000000       0.000000000000
29 2       0.000000000000       0.000000000000       0.000000000000       0.000000000000       0.000000000000       0.000000000000
30 2       0.000000000000       0.000000000000       0.000000000000       0.000000000000       0.000000000000       0.000000000000
31 2       0.000000000000       0.000000000000       0.000000000000       0.000000000000       0.000000000000       0.000000000000
32 2       0.000000000000       0.000000000000       0.000000000000       0.000000000000       0.000000000000       0.000000000000
33 1       0.000000000000       0.000000000000       0.000000000000       0.000000000000       0.000000000000       0.000000000000
34 1       0.000000000000       0.000000000000       0.000000000000       0.000000000000       0.000000000000       0.000000000000
35 1       0.000000000000       0.000000000000       0.000000000000       0.000000000000       0.000000000000       0.000000000000
36 1       0.000000000000       0.000000000000       0.000000000000       0.000000000000       0.000000000000       0.000000000000
37 1       0.000000000000       0.000000000000       0.000000000000       0.000000000000       0.000000000000       0.000000000000
38 1       0.000000000000       0.000000000000       0.000000000000       0.000000000000       0.000000000000       0.000000000000
39 1       0.000000000000       0.000000000000       0.000000000000       0.000000000000       0.000000000000       0.000000000000
40 1       0.000000000000       0.000000000000       0.000000000000       0.000000000000       0.000000000000       0.000000000000
41 1       0.000000000000       0.000000000000       0.000000000000       0.000000000000       0.000000000000       0.000000000000
42 1       0.000000000000       0.000000000000       0.000000000000       0.000000000000       0.000000000000       0.000000000000
43 1       0.000000000000       0.000000000000       0.000000000000       0.000000000000       0.000000000000       0.000000000000
44 1       0.000000000000       0.000000000000       0.000000000000       0.000000000000       0.000000000000       0.000000000000
45 1       0.000000000000       0.000000000000       0.000000000000       0.000000000000       0.000000000000       0.000000000000
46 1       0.000000000000       0.000000000000       0.000000000000       0.000000000000       0.000000000000       0.000000000000
47 1       0.000000000000       0.000000000000       0.000000000000       0.000000000000       0.000000000000       0.000000000000
48 1       0.000000000000       0.000000000000       0.000000000000       0.000000000000       0.000000000000       0.000000000000
49 1       0.000000000000       0.000000000000       0.000000000000       0.000000000000       0.000000000000       0.000000000000
50 1       0.000000000000       0.000000000000       0.000000000000       0.000000000000       0.000000000000       0.000000000000
51 1       0.000000000000       0.000000000000       0.000000000000       0.000000000000       0.000000000000       0.000000000000
52 1       0.000000000000       0.000000000000       0.000000000000       0.000000000000       0.000000000000       0.000000000000
53 1       0.000000000000       0.000000000000       0.000000000000       0.000000000000       0.000000000000       0.000000000000
54 1       0.000000000000       0.000000000000       0.000000000000       0.000000000000       0.000000000000       0.000000000000
55 1       0.000000000000       0.000000000000       0.000000000000       0.000000000000       0.000000000000       0.000000000000
56 1       0.000000000000       0.000000000000       0.000000000000       0.000000000000       0.000000000000       0.000000000000
57 1       0.000000000000       0.000000000000       0.000000000000       0.000000000000       0.000000000000       0.000000000000
58 1       0.000000000000       0.000000000000       0.000000000000       0.000000000000       0.000000000000       0.000000000000
59 1       0.000000000000       0.000000000000       0.000000000000       0.000000000000       0.000000000000       0.000000000000
60 1       0.000000000000       0.000000000000       0.000000000000       0.000000000000       0.000000000000       0.000000000000
61 1       0.000000000000       0.000000000000       0.000000000000       0.000000000000       0.000000000000       0.000000000000
62 1       0.000000000000       0.000000000000       0.000000000000       0.000000000000       0.000000000000       0.000000000000
63 1       0.000000000000       0.000000000000       0.000000000000       0.000000000000       0.000000000000       0.000000000000
64 1       0.000000000000       0.000000000000       0.000000000000       0.000000000000       0.000000000000       0.000000000000
65 1       0.000000000000       0.000000000000       0.000000000000       0.000000000000       0.000000000000       0.000000000000
66 1       0.000000000000       0.000000000000       0.000000000000       0.000000000000       0.000000000000       0.000000000000
67 1       0.000000000000       0.000000000000       0.000000000000       0.000000000000       0.000000000000       0.000000000000
68 1       0.000000000000       0.000000000000       0.000000000000       0.000000000000       0.000000000000       0.000000000000
69 1       0.000000000000       0.000000000000       0.000000000000       0.000000000000       0.000000000000       0.000000000000
70 1       0.000000000000       0.000000000000       0.000000000000       0.000000000000       0.000000000000       0.000000000000
71 1       0.000000000000       0.000000000000       0.000000000000       0.000000000000       0.000000000000       0.000000000000
72 1       0.000000000000       0.000000000000       0.000000000000       0.000000000000       0.000000000000       0.000000000000
73 1       0.000000000000       0.000000000000       0.000000000000       0.000000000000       0.000000000000       0.000000000000
74 1       0.000000000000       0.000000000000       0.000000000000       0.000000000000       0.000000000000       0.000000000000
75 1       0.000000000000       0.000000000000       0.000000000000       0.000000000000       0.000000000000       0.000000000000
76 1       0.000000000000       0.000000000000       0.000000000000       0.000000000000       0.000000000000       0.000000000000
77 1       0.000000000000       0.000000000000       0.000000000000       0.000000000000       0.000000000000       0.000000000000
78 1       0.000000000000       0.000000000000       0.000000000000       0.000000000000       0.000000000000       0.000000000000
79 1       0.000000000000       0.000000000000       0.000000000000       0.000000000000       0.000000000000       0.000000000000
80 1       0.000000000000       0.000000000000       0.000000000000       0.000000000000       0.000000000000       0.000000000000
