80
Config_type=bulk_delta_phase Weight=1.0 Lattice="9.316835109 0.000000000 0.000000000 0.000000000 9.316835109 0.000000000 0.000000000 0.000000000 9.316835109" Energy=-679.71397660 Virial="29.26698 0.00004 -0.00004 0.00004 29.26712 -0.00005 -0.00004 -0.00005 29.26706" pbc="T T T" Properties=species:S:1:pos:R:3:forces:R:3
Ga	      6.98763      2.32921      2.32921        -0.000092     -0.000026     -0.000031
Ga	      6.98763      4.32765      4.65842        -0.000092     -0.000759     -0.000063
Ga	      0.00000      6.98763      0.33077         0.000003     -0.000077      0.000734
Ga	      0.00000      2.32921      4.32765         0.000009     -0.000040     -0.000735
Ga	      0.33077      0.00000      6.98763         0.000734      0.000005     -0.000082
Ga	      0.33077      4.65842      2.32921         0.000696     -0.000055     -0.000028
Ga	      2.32921      4.32765      0.00000        -0.000035     -0.000732      0.000017
Ga	      2.32921      6.98763      2.32921        -0.000031     -0.000091     -0.000022
Ga	      2.32921      2.32921      2.32921        -0.000051     -0.000055     -0.000052
Ga	      2.32921      2.32921      6.98763        -0.000023     -0.000029     -0.000093
Ga	      2.32921      0.33077      4.65842        -0.000026      0.000698     -0.000058
Ga	      4.32765      0.00000      2.32921        -0.000741      0.000013     -0.000036
Ga	      4.32765      4.65842      6.98763        -0.000745     -0.000061     -0.000093
Ga	      4.65842      2.32921      0.33077        -0.000053     -0.000016      0.000707
Ga	      4.65842      6.98763      4.32765        -0.000065     -0.000094     -0.000759
Ga	      6.98763      0.33077      0.00000        -0.000079      0.000736      0.000012
Ga	      2.32921      6.98763      6.98763        -0.000033     -0.000121     -0.000095
Ga	      2.32921      8.98606      0.00000        -0.000021     -0.000614      0.000036
Ga	      4.65842      2.32921      4.98919        -0.000039     -0.000032      0.000615
Ga	      4.65842      6.98763      8.98606        -0.000034     -0.000088     -0.000614
Ga	      4.98919      4.65842      2.32921         0.000624     -0.000039     -0.000036
Ga	      4.98919      0.00000      6.98763         0.000660      0.000031     -0.000099
Ga	      6.98763      8.98606      4.65842        -0.000083     -0.000622     -0.000037
Ga	      6.98763      2.32921      6.98763        -0.000096     -0.000034     -0.000114
Ga	      6.98763      6.98763      6.98763        -0.000083     -0.000081     -0.000079
Ga	      6.98763      6.98763      2.32921        -0.000116     -0.000094     -0.000036
Ga	      6.98763      4.98919      0.00000        -0.000100      0.000657      0.000036
Ga	      8.98606      4.65842      6.98763        -0.000623     -0.000031     -0.000081
Ga	      8.98606      0.00000      2.32921        -0.000603      0.000027     -0.000020
Ga	      0.00000      6.98763      4.98919         0.000035     -0.000100      0.000658
Ga	      0.00000      2.32921      8.98606         0.000021     -0.000015     -0.000606
Ga	      2.32921      4.98919      4.65842        -0.000034      0.000623     -0.000046
O	      8.23712      5.68259      1.46914         0.003235     -0.005281      0.005006
O	      8.23712      3.63424      3.18928         0.003280      0.005365     -0.005074
O	      8.29266      1.46914      1.07971         0.005300      0.005029     -0.003242
O	      8.29266      3.18928      5.73813         0.005291     -0.005040     -0.003182
O	      1.02417      3.18928      1.07971        -0.005260     -0.005044     -0.003199
O	      1.02417      1.46914      5.73813        -0.005223      0.005005     -0.003155
O	      1.07971      8.29266      1.46914        -0.003197      0.005294      0.005012
O	      1.07971      1.02417      3.18928        -0.003180     -0.005260     -0.005051
O	      1.46914      5.73813      1.02417         0.005009     -0.003167     -0.005225
O	      1.46914      3.57870      3.63424         0.005042      0.003352      0.005356
O	      1.46914      1.07971      8.29266         0.005031     -0.003218      0.005306
O	      1.46914      8.23712      5.68259         0.005004      0.003216     -0.005265
O	      3.18928      3.57870      5.68259        -0.005074      0.003286     -0.005305
O	      3.18928      1.07971      1.02417        -0.005064     -0.003188     -0.005285
O	      3.18928      8.23712      3.63424        -0.005076      0.003257      0.005361
O	      3.18928      5.73813      8.29266        -0.005066     -0.003173      0.005294
O	      3.57870      3.63424      1.46914         0.003315      0.005350      0.005023
O	      3.57870      5.68259      3.18928         0.003258     -0.005283     -0.005038
O	      3.63424      1.46914      3.57870         0.005353      0.005040      0.003346
O	      3.63424      3.18928      8.23712         0.005336     -0.005081      0.003291
O	      5.68259      1.46914      8.23712        -0.005271      0.004996      0.003232
O	      5.68259      3.18928      3.57870        -0.005291     -0.005065      0.003298
O	      5.73813      8.29266      3.18928        -0.003163      0.005286     -0.005026
O	      5.73813      1.02417      1.46914        -0.003149     -0.005234      0.004990
O	      3.57870      1.02417      6.12756         0.003295     -0.005263      0.004999
O	      3.57870      8.29266      7.84769         0.003292      0.005321     -0.004976
O	      3.63424      6.12756      5.73813         0.005273      0.005012     -0.003213
O	      3.63424      7.84769      1.07971         0.005305     -0.004989     -0.003231
O	      5.68259      7.84769      5.73813        -0.005214     -0.004943     -0.003139
O	      5.68259      6.12756      1.07971        -0.005228      0.004994     -0.003207
O	      5.73813      3.63424      6.12756        -0.003189      0.005288      0.004995
O	      5.73813      5.68259      7.84769        -0.003116     -0.005217     -0.004954
O	      6.12756      1.07971      5.68259         0.004990     -0.003210     -0.005242
O	      6.12756      8.23712      8.29266         0.004993      0.003267      0.005276
O	      6.12756      5.73813      3.63424         0.005013     -0.003182      0.005310
O	      6.12756      3.57870      1.02417         0.005002      0.003284     -0.005281
O	      7.84769      8.23712      1.02417        -0.004975      0.003222     -0.005262
O	      7.84769      5.73813      5.68259        -0.004952     -0.003125     -0.005227
O	      7.84769      3.57870      8.29266        -0.004968      0.003306      0.005322
O	      7.84769      1.07971      3.63424        -0.005008     -0.003230      0.005340
O	      8.23712      8.29266      6.12756         0.003247      0.005272      0.004973
O	      8.23712      1.02417      7.84769         0.003218     -0.005253     -0.004953
O	      8.29266      6.12756      8.23712         0.005276      0.004981      0.003256
O	      8.29266      7.84769      3.57870         0.005306     -0.004980      0.003334
O	      1.02417      6.12756      3.57870        -0.005250      0.004984      0.003300
O	      1.02417      7.84769      8.23712        -0.005233     -0.004956      0.003219
O	      1.07971      3.63424      7.84769        -0.003214      0.005319     -0.004982
O	      1.07971      5.68259      6.12756        -0.003186     -0.005229      0.004975
