80
Config_type=bulk_delta_phase Weight=1.0 Lattice="9.410944555 0.000000000 0.000000000 0.000000000 9.410944555 0.000000000 0.000000000 0.000000000 9.410944555" Energy=-680.21076560 Virial="0.50749 0.00003 -0.00005 0.00003 0.50748 -0.00001 -0.00005 -0.00001 0.50754" pbc="T T T" Properties=species:S:1:pos:R:3:forces:R:3
Ga	      7.05821      2.35274      2.35274         0.000010     -0.000115     -0.000105
Ga	      7.05821      4.36766      4.70547         0.000010      0.017584      0.000014
Ga	      0.00000      7.05821      0.33782         0.000040      0.000017     -0.017699
Ga	      0.00000      2.35274      4.36766         0.000050     -0.000118      0.017554
Ga	      0.33782      0.00000      7.05821        -0.017704      0.000041      0.000016
Ga	      0.33782      4.70547      2.35274        -0.017716      0.000031     -0.000110
Ga	      2.35274      4.36766      0.00000        -0.000115      0.017560      0.000051
Ga	      2.35274      7.05821      2.35274        -0.000109      0.000008     -0.000118
Ga	      2.35274      2.35274      2.35274        -0.000100     -0.000100     -0.000098
Ga	      2.35274      2.35274      7.05821        -0.000116     -0.000106      0.000010
Ga	      2.35274      0.33782      4.70547        -0.000105     -0.017716      0.000028
Ga	      4.36766      0.00000      2.35274         0.017559      0.000050     -0.000112
Ga	      4.36766      4.70547      7.05821         0.017584      0.000011      0.000011
Ga	      4.70547      2.35274      0.33782         0.000029     -0.000106     -0.017709
Ga	      4.70547      7.05821      4.36766         0.000016      0.000010      0.017582
Ga	      7.05821      0.33782      0.00000         0.000016     -0.017704      0.000040
Ga	      2.35274      7.05821      7.05821        -0.000099     -0.000017     -0.000014
Ga	      2.35274      9.07313      0.00000        -0.000085      0.017692      0.000051
Ga	      4.70547      2.35274      5.04329         0.000020     -0.000091     -0.017688
Ga	      4.70547      7.05821      9.07313         0.000029     -0.000010      0.017718
Ga	      5.04329      4.70547      2.35274        -0.017691      0.000016     -0.000088
Ga	      5.04329      0.00000      7.05821        -0.017676      0.000055     -0.000020
Ga	      7.05821      9.07313      4.70547        -0.000009      0.017720      0.000027
Ga	      7.05821      2.35274      7.05821        -0.000016     -0.000098     -0.000016
Ga	      7.05821      7.05821      7.05821        -0.000000     -0.000002     -0.000003
Ga	      7.05821      7.05821      2.35274        -0.000015     -0.000014     -0.000096
Ga	      7.05821      5.04329      0.00000        -0.000013     -0.017674      0.000057
Ga	      9.07313      4.70547      7.05821         0.017719      0.000030     -0.000012
Ga	      9.07313      0.00000      2.35274         0.017688      0.000040     -0.000081
Ga	      0.00000      7.05821      5.04329         0.000050     -0.000013     -0.017677
Ga	      0.00000      2.35274      9.07313         0.000043     -0.000084      0.017688
Ga	      2.35274      5.04329      4.70547        -0.000091     -0.017685      0.000013
O	      8.33053      5.75085      1.48694         0.002948     -0.000603      0.006277
O	      8.33053      3.66009      3.21853         0.002954      0.000679     -0.006212
O	      8.36557      1.48694      1.08041         0.000496      0.006265     -0.002859
O	      8.36557      3.21853      5.78588         0.000486     -0.006203     -0.002813
O	      1.04538      3.21853      1.08041        -0.000567     -0.006196     -0.002846
O	      1.04538      1.48694      5.78588        -0.000558      0.006242     -0.002832
O	      1.08041      8.36557      1.48694        -0.002837      0.000486      0.006251
O	      1.08041      1.04538      3.21853        -0.002829     -0.000561     -0.006181
O	      1.48694      5.78588      1.04538         0.006247     -0.002820     -0.000562
O	      1.48694      3.62506      3.66009         0.006272      0.002951      0.000668
O	      1.48694      1.08041      8.36557         0.006242     -0.002843      0.000492
O	      1.48694      8.33053      5.75085         0.006288      0.002972     -0.000612
O	      3.21853      3.62506      5.75085        -0.006218      0.002947     -0.000602
O	      3.21853      1.08041      1.04538        -0.006183     -0.002842     -0.000563
O	      3.21853      8.33053      3.66009        -0.006222      0.002965      0.000673
O	      3.21853      5.78588      8.36557        -0.006183     -0.002802      0.000492
O	      3.62506      3.66009      1.48694         0.002945      0.000643      0.006253
O	      3.62506      5.75085      3.21853         0.002924     -0.000596     -0.006210
O	      3.66009      1.48694      3.62506         0.000648      0.006261      0.002950
O	      3.66009      3.21853      8.33053         0.000681     -0.006216      0.002953
O	      5.75085      1.48694      8.33053        -0.000609      0.006287      0.002962
O	      5.75085      3.21853      3.62506        -0.000595     -0.006229      0.002959
O	      5.78588      8.36557      3.21853        -0.002807      0.000487     -0.006217
O	      5.78588      1.04538      1.48694        -0.002834     -0.000560      0.006241
O	      3.62506      1.04538      6.19241         0.002923     -0.000608      0.006267
O	      3.62506      8.36557      7.92401         0.002946      0.000530     -0.006338
O	      3.66009      6.19241      5.78588         0.000645      0.006265     -0.002823
O	      3.66009      7.92401      1.08041         0.000653     -0.006341     -0.002873
O	      5.75085      7.92401      5.78588        -0.000595     -0.006351     -0.002830
O	      5.75085      6.19241      1.08041        -0.000574      0.006309     -0.002865
O	      5.78588      3.66009      6.19241        -0.002824      0.000649      0.006276
O	      5.78588      5.75085      7.92401        -0.002838     -0.000577     -0.006333
O	      6.19241      1.08041      5.75085         0.006280     -0.002839     -0.000579
O	      6.19241      8.33053      8.36557         0.006287      0.002918      0.000558
O	      6.19241      5.78588      3.66009         0.006295     -0.002810      0.000660
O	      6.19241      3.62506      1.04538         0.006283      0.002916     -0.000634
O	      7.92401      8.33053      1.04538        -0.006360      0.002942     -0.000625
O	      7.92401      5.78588      5.75085        -0.006358     -0.002845     -0.000592
O	      7.92401      3.62506      8.36557        -0.006354      0.002932      0.000550
O	      7.92401      1.08041      3.66009        -0.006338     -0.002861      0.000648
O	      8.33053      8.36557      6.19241         0.002939      0.000558      0.006313
O	      8.33053      1.04538      7.92401         0.002958     -0.000623     -0.006350
O	      8.36557      6.19241      8.33053         0.000542      0.006300      0.002941
O	      8.36557      7.92401      3.62506         0.000541     -0.006364      0.002923
O	      1.04538      6.19241      3.62506        -0.000609      0.006275      0.002925
O	      1.04538      7.92401      8.33053        -0.000626     -0.006350      0.002956
O	      1.08041      3.66009      7.92401        -0.002870      0.000640     -0.006334
O	      1.08041      5.75085      6.19241        -0.002840     -0.000591      0.006283
