ITEM: TIMESTEP
0
ITEM: NUMBER OF ATOMS
40
ITEM: BOX BOUNDS pp pp pp
0.0000000000000000e+00 8.7669226699999996e+00
0.0000000000000000e+00 5.1052542799999996e+00
0.0000000000000000e+00 9.3808648609999992e+00
ITEM: ATOMS id type x y z fx fy fz
1 2       1.375930000000       1.578730000000       8.327740000000       0.085198748162       0.034439015698       0.058835279973
2 2       3.116160000000       4.131350000000       8.327740000000      -0.085121740276       0.034498325673       0.058931828010
3 2       5.772320000000       0.903260000000       7.492740000000      -0.041037169659       0.014037068235      -0.092080687809
4 2       7.486690000000       3.455890000000       7.492750000000       0.040999894558       0.013978672627      -0.092240956092
5 2       4.719410000000       3.458230000000       5.593710000000       0.120310117337      -0.118202220423       0.155366972695
6 2       1.471990000000       3.505860000000       5.717910000000       0.074526901043      -0.159929471178       0.204499606875
7 2       3.020100000000       0.953230000000       5.717910000000      -0.074677383389      -0.159921305695       0.204541848344
8 2       8.539600000000       0.905600000000       5.593710000000      -0.120257444580      -0.118211785805       0.155331051333
9 2       1.388780000000       1.648960000000       2.802170000000      -0.038851919241      -0.014488511769      -0.090779390594
10 2       3.103320000000       4.201580000000       2.802170000000       0.038795096702      -0.014284987570      -0.090743511101
11 2       5.758540000000       0.974540000000       3.637250000000       0.081727269286      -0.033473333751       0.061091870735
12 2       7.500470000000       3.527170000000       3.637250000000      -0.081748536620      -0.033625232505       0.061020984891
13 2       4.157050000000       1.647540000000       0.903560000000      -0.122601927921       0.119493046766       0.156797480213
14 2       5.855370000000       4.152030000000       1.027270000000       0.073180688326       0.161715765035       0.204231411390
15 2       7.403650000000       1.599410000000       1.027260000000      -0.073281376912       0.161668396258       0.204325014272
16 2       0.335040000000       4.200170000000       0.903560000000       0.122637303422       0.119545233654       0.156900931176
17 1       7.321940000000       1.777120000000       4.423210000000       0.039654626639      -0.037255418262       0.035542941966
18 1       0.036690000000       0.775000000000       0.039070000000       0.050215594057      -0.094864017874      -0.021960239289
19 1       7.354780000000       0.096580000000       6.932280000000      -0.037429986177       0.062486302726      -0.066113964033
20 1       7.283400000000       4.964430000000       2.130110000000       0.094586056604      -0.036900108051      -0.119912264243
21 1       5.937070000000       4.329750000000       4.423210000000      -0.039677132289      -0.037275155203       0.035543232761
22 1       7.429870000000       3.340070000000       9.365240000000      -0.022286589037      -0.087091009896      -0.120818354566
23 1       5.904230000000       2.649210000000       6.932280000000       0.037422748158       0.062451296881      -0.066119002913
24 1       5.975620000000       2.411800000000       2.130120000000      -0.094537716811      -0.036839245919      -0.119959894622
25 1       1.445370000000       1.765030000000       4.674840000000       0.020039068063       0.086178545392      -0.121274370772
26 1       2.939180000000       0.776110000000       9.114030000000       0.038550796065       0.036042797198       0.034719621354
27 1       1.593570000000       0.140010000000       6.821380000000      -0.095802865219       0.034547559431      -0.115254763642
28 1       1.520910000000       5.008240000000       2.241900000000       0.035433927415      -0.060850704602      -0.065568173418
29 1       0.072450000000       4.330750000000       4.729620000000      -0.053110402577       0.095542620189      -0.021622135770
30 1       1.552910000000       3.328740000000       9.114030000000      -0.038559808878       0.036039916777       0.034729455249
31 1       0.155020000000       2.431400000000       6.883330000000      -0.149888247043       0.041448281846      -0.038918063757
32 1       8.720290000000       2.673410000000       2.193010000000       0.146287556215      -0.042811960031      -0.036709026621
33 1       4.419630000000       1.778130000000       4.729630000000       0.053295044356       0.095420672563      -0.021814336597
34 1       5.829140000000       0.787450000000       9.365240000000       0.022338322626      -0.087135551050      -0.120928990072
35 1       4.337060000000       4.984020000000       6.883330000000       0.149975306255       0.041483379146      -0.038920297258
36 1       4.538730000000       0.120780000000       2.193010000000      -0.146320742216      -0.042796258422      -0.036669751050
37 1       3.046720000000       4.317660000000       4.674840000000      -0.020043307735       0.086163457601      -0.121257645418
38 1       4.455410000000       3.327620000000       0.039070000000      -0.050291564346      -0.094766446469      -0.021982629526
39 1       2.898510000000       2.692630000000       6.821380000000       0.095806351751       0.034612288298      -0.115160878761
40 1       2.971190000000       2.455620000000       2.241900000000      -0.035455556113      -0.061069917521      -0.065600203313
