ITEM: TIMESTEP
0
ITEM: NUMBER OF ATOMS
30
ITEM: BOX BOUNDS xy xz yz pp pp pp
-2.5824949570000002e+00 5.1649899140000004e+00 -2.5824949570000002e+00
0.0000000000000000e+00 4.4730129019999998e+00 0.0000000000000000e+00
0.0000000000000000e+00 1.3904522606000000e+01 0.0000000000000000e+00
ITEM: ATOMS id type x y z fx fy fz
1 2       0.000000000000       0.000000000000       2.004190000000      -0.000013591022      -0.000044705266      -0.091117132015
2 2       0.000000000000       2.982010000000       0.313240000000      -0.000016110705      -0.000048211305       0.091016804308
3 2       2.582490000000       1.491000000000       2.630650000000       0.000055619485       0.000045856115       0.091066616402
4 2       0.000000000000       2.982010000000       4.321610000000      -0.000017858909      -0.000027922326      -0.091038165077
5 2       2.582490000000       1.491000000000       6.639020000000       0.000044230129       0.000054629773      -0.090981451812
6 2       0.000000000000       0.000000000000       4.948070000000      -0.000021631349       0.000008883066       0.091144897242
7 2       0.000000000000       2.982010000000       7.265500000000      -0.000018541614      -0.000066618692       0.091054009467
8 2       0.000000000000       0.000000000000       8.956450000000      -0.000017961194      -0.000030185738      -0.091140923548
9 2       0.000000000000       2.982010000000      11.273870000000       0.000004319513      -0.000024901668      -0.091016723707
10 2       2.582490000000       1.491000000000       9.582910000000       0.000066377547       0.000043562813       0.091029420214
11 2       0.000000000000       0.000000000000      11.900330000000      -0.000011795033       0.000005973189       0.091155931557
12 2       2.582490000000       1.491000000000      13.591290000000       0.000068562403       0.000063080189      -0.091062996440
13 1      -0.782510000000       1.355350000000       3.476130000000       0.035153636773      -0.060950547210       0.000032161352
14 1       1.565020000000       0.000000000000       3.476130000000      -0.070356719970      -0.000025353709       0.000039264247
15 1       1.799980000000       3.117660000000       3.476130000000       0.035201871018       0.060962320281       0.000020810171
16 1       3.365010000000       0.135650000000       1.158710000000      -0.035216638158       0.060981731268       0.000049695539
17 1       3.365010000000       2.846350000000       1.158710000000      -0.035246916961      -0.060923014659       0.000061660956
18 1       1.017470000000       1.491000000000       1.158710000000       0.070425286776       0.000006493520       0.000032566819
19 1       1.799980000000       2.846350000000       8.110970000000       0.035249469059      -0.060934654261       0.000071861693
20 1       4.147520000000       1.491000000000       8.110970000000      -0.070393604958       0.000017668713       0.000026199365
21 1       1.799990000000       0.135650000000       8.110970000000       0.035102928263       0.060988656265       0.000076493548
22 1       0.782510000000       1.626660000000       5.793560000000      -0.035231591825       0.060913287392      -0.000112150745
23 1       0.782510000000       4.337360000000       5.793560000000      -0.035164318980      -0.060983710031      -0.000134665220
24 1      -1.565030000000       2.982010000000       5.793560000000       0.070415496345       0.000021574747      -0.000101941168
25 1      -0.782510000000       4.337360000000      12.745820000000       0.035132787389      -0.060967047060      -0.000102688288
26 1       1.565020000000       2.982010000000      12.745820000000      -0.070332509513       0.000010858489      -0.000080968335
27 1      -0.782510000000       1.626660000000      12.745820000000       0.035176200264       0.060916043863      -0.000080971091
28 1      -1.799980000000       3.117660000000      10.428390000000      -0.035216933167       0.060967142684       0.000021550917
29 1       0.782510000000       1.355350000000      10.428390000000      -0.035161646574      -0.060956040770       0.000028144830
30 1       3.599970000000       0.000000000000      10.428390000000       0.070341584966      -0.000024849671       0.000042688819
