ITEM: TIMESTEP
0
ITEM: NUMBER OF ATOMS
30
ITEM: BOX BOUNDS xy xz yz pp pp pp
-2.5824949570000002e+00 5.1649899140000004e+00 -2.5824949570000002e+00
0.0000000000000000e+00 4.4730129019999998e+00 0.0000000000000000e+00
0.0000000000000000e+00 1.3904522606000000e+01 0.0000000000000000e+00
ITEM: ATOMS id type v_vir_xx v_vir_yy v_vir_zz v_vir_xy v_vir_xz v_vir_yz
1 2      -2.257341856349      -2.257255617931      -0.477651243265      -0.000025591605       0.000001275460       0.000027591871
2 2      -2.257315386598      -2.257337059922      -0.477684503256       0.000035468850      -0.000012889267      -0.000017081052
3 2      -2.257283616317      -2.257302372226      -0.477682393694      -0.000005510597       0.000002962243       0.000018904480
4 2      -2.257279727362      -2.257290651051      -0.477561223968       0.000025057823      -0.000002965408       0.000004656244
5 2      -2.257285246002      -2.257324052398      -0.477742525862      -0.000000644893      -0.000000596270      -0.000028929560
6 2      -2.257290222192      -2.257257362873      -0.477553110396      -0.000009336504       0.000000434477       0.000002286860
7 2      -2.257278827078      -2.257346622691      -0.477750552106       0.000023739358      -0.000005298218      -0.000030148991
8 2      -2.257302714691      -2.257266210916      -0.477642244205      -0.000049037480       0.000006917314       0.000021244218
9 2      -2.257319881313      -2.257309512019      -0.477534324491       0.000007557178       0.000000762025      -0.000006404307
10 2      -2.257322033936      -2.257297099199      -0.477648037147      -0.000033583286       0.000002938772       0.000014660317
11 2      -2.257310751584      -2.257232373557      -0.477561095540      -0.000020202848       0.000000713054       0.000010052628
12 2      -2.257256967323      -2.257303032580      -0.477744821645       0.000002429803      -0.000007057303      -0.000016522743
13 1       2.326405142769       3.106287208332       1.474811409223      -0.675422475114       0.800760607264       0.462318247547
14 1       3.496247845840       1.936395770226       1.474832171420      -0.000017873433       0.000010584314      -0.924623773116
15 1       2.326378937197       3.106269570162       1.474805246881       0.675398006316      -0.800746240060       0.462315242727
16 1       2.326367444709       3.106210910289       1.474790603661      -0.675440514808       0.800747865505       0.462287640260
17 1       2.326363914057       3.106285533463       1.474799644141       0.675432569129      -0.800739865821       0.462339142263
18 1       3.496152100886       1.936374830506       1.474783475541      -0.000004023687      -0.000005115553      -0.924621586790
19 1       2.326297965357       3.106292227721       1.474802377939      -0.675376756393       0.800746118839       0.462340471976
20 1       3.496227074100       1.936418540022       1.474790526448      -0.000008852088       0.000002609704      -0.924632191628
21 1       2.326344957508       3.106232315011       1.474821252443       0.675447161851      -0.800762246119       0.462282507625
22 1       2.326284912379       3.106310585743       1.474806214929      -0.675415648447       0.800731526701       0.462336876657
23 1       2.326361475960       3.106218702669       1.474805300573       0.675439149359      -0.800761811104       0.462276706197
24 1       3.496193573275       1.936425994168       1.474804222273      -0.000016837136       0.000012403204      -0.924619559136
25 1       2.326391570558       3.106217479184       1.474837355800      -0.675436048312       0.800768417237       0.462288506517
26 1       3.496254107216       1.936423771949       1.474838190864       0.000023731871      -0.000013371008      -0.924643857633
27 1       2.326377653899       3.106296782847       1.474813894602       0.675413743179      -0.800772318196       0.462339132323
28 1       2.326391113829       3.106282180303       1.474806623450      -0.675381397727       0.800746254518       0.462324822687
29 1       2.326358811959       3.106284593770       1.474801304235       0.675418041937      -0.800739104134       0.462315867734
30 1       3.496260038958       1.936399012971       1.474799832986       0.000003970638       0.000000543968      -0.924633944123
