160
Config_type=bulk_gamma_phase Weight=1.0 Lattice="8.417051705 0.000000000 0.000000000 0.000000000 8.417051705 0.000000000 0.000000000 0.000000000 25.251155114" Energy=-1360.51948820 Virial="-25.51594 0.10147 -19.84089 0.10147 -26.29126 -2.34023 -19.84089 -2.34023 -22.52344" pbc="T T T" Properties=species:S:1:pos:R:3:forces:R:3
Ga	      1.22016      5.22382     22.21030         0.011089      0.019912     -0.012365
Ga	      5.22905      0.85086     13.74518         0.003372     -0.012569     -0.002870
Ga	      7.19481      7.44111      7.42766        -0.001554      0.010002     -0.020988
Ga	      7.32613      7.17216     15.85095         0.009638     -0.007485      0.012904
Ga	      5.25343      5.27669      0.98707        -0.004159     -0.020627      0.007598
Ga	      3.04722      3.22176      7.24672        -0.004329      0.001967      0.010727
Ga	      0.95762      1.05384      1.09452        -0.005536     -0.006746     -0.013211
Ga	      5.19681      1.03377      5.27052         0.011819      0.005242     -0.001456
Ga	      3.19891      2.98312     15.73496        -0.017723     -0.003004      0.012945
Ga	      5.41131      1.12334     22.02428        -0.011504     -0.003529      0.014071
Ga	      3.15585      7.28995     11.57373        -0.004653     -0.004785      0.000931
Ga	      7.46342      3.21177     19.91535        -0.012054      0.015027     -0.003496
Ga	      1.02499      5.12572     13.55380        -0.000428     -0.015831      0.006787
Ga	      7.36417      3.23836      3.22108         0.004671     -0.006145      0.016883
Ga	      5.12155      5.35819      9.41966         0.026946     -0.005128      0.008500
Ga	      7.39768      7.47910     24.22688        -0.004569      0.006252      0.011600
Ga	      3.21056      7.49043     20.03181         0.005251      0.001809      0.008484
Ga	      0.92007      1.07994      9.57389        -0.008183      0.018406     -0.011837
Ga	      3.24280      7.46248      3.11672        -0.002573      0.011785     -0.000259
Ga	      1.18520      1.03938     17.91311         0.002670     -0.007535     -0.002672
Ga	      3.95221      0.19067      8.42770         0.012934     -0.025566     -0.008326
Ga	      6.16960      6.14693     12.60439        -0.021393      0.001939      0.004309
Ga	      2.17238      2.14213     21.05744        -0.006519     -0.013366     -0.003855
Ga	      6.44089      6.32927     21.01092         0.011863      0.015904      0.043152
Ga	      1.97257      6.43601      8.32923         0.009242     -0.002858      0.001553
Ga	      8.36621      2.07290      6.27377         0.007323      0.007486      0.012647
Ga	      2.00620      2.10781      4.24647         0.000113     -0.011295     -0.012588
Ga	      0.05425      2.02766     14.69616        -0.007458     -0.015791     -0.012005
Ga	      0.16396      6.23973     18.89291         0.004401      0.006297      0.008471
Ga	      6.30132      0.05462      2.11472         0.017623     -0.010137     -0.022960
Ga	      6.12754      0.07161     10.58302        -0.003746      0.007162     -0.009361
Ga	      4.19399      2.21156     18.88956        -0.009178     -0.009688      0.020368
Ga	      6.44517      8.38369     18.94648         0.019727      0.026106      0.001446
Ga	      6.38996      2.05631     16.81437         0.002174      0.014600     -0.007557
Ga	      0.16259      2.07412     23.20515        -0.008829      0.018919     -0.021157
Ga	      2.04575      8.20796     14.82339         0.025774     -0.027197     -0.010877
Ga	      4.02929      6.06158     14.73596         0.019348      0.003132     -0.003366
Ga	      6.27559      4.22515      6.34080         0.016167     -0.007425     -0.010651
Ga	      4.23478      6.41706     23.18730         0.002657      0.005803     -0.017792
Ga	      0.09820      4.21135     16.82984        -0.012147     -0.023995      0.013785
Ga	      2.09461      4.26007      2.10411         0.009920     -0.009958     -0.004200
Ga	      4.15219      4.33143     20.98910         0.006083     -0.001639     -0.003255
Ga	      4.16147      8.22576     16.89543         0.012239     -0.005662     -0.005215
Ga	      6.34207      4.26209     23.09189         0.014963     -0.006306      0.001410
Ga	      8.35261      6.24510     10.49607         0.019894      0.005713     -0.001323
Ga	      8.40275      8.34410     12.64962        -0.001688      0.015954      0.005216
Ga	      0.02439      4.30153      0.04419         0.003726     -0.005174     -0.015731
Ga	      6.24725      4.08602     14.70353         0.012855     -0.016461     -0.003866
Ga	      4.16623      4.21289      4.16418         0.023207     -0.002312      0.023037
Ga	      2.13645      2.04464     12.55421         0.008435      0.014010      0.001271
Ga	      2.10410      4.13509     10.53706        -0.008673      0.007506     -0.020849
Ga	      0.04164      6.47146      2.20658        -0.021467     -0.004583      0.003466
Ga	      0.20360      8.37520     21.14510         0.000032      0.014653     -0.010443
Ga	      4.14478      2.04605      1.99455         0.000577      0.008572     -0.010942
Ga	      6.23617      2.06137     25.20156         0.007413     -0.008327      0.015816
Ga	      8.39545      4.15506      8.41489        -0.001636      0.021313     -0.004562
Ga	      6.11470      2.17421      8.51842        -0.002718     -0.008407      0.003788
Ga	      4.04144      6.45316      6.25687         0.000614      0.031603      0.003159
Ga	      6.37055      6.45760      4.26476        -0.012270     -0.006842     -0.010679
Ga	      2.19285      6.41586     25.22309        -0.009770      0.004718     -0.016230
Ga	      5.18824      3.13595     11.61784        -0.003034     -0.017556     -0.021352
Ga	      3.19265      1.07513     24.17592        -0.011710     -0.002696      0.013836
Ga	      3.18159      5.19970     17.87916        -0.006194     -0.003720      0.003729
Ga	      0.99221      7.43620      5.25760         0.009461      0.017145     -0.002975
O	      2.13198      2.15180      2.12989         0.004120      0.004963      0.000937
O	      6.18379      6.26105      6.27580        -0.001977     -0.006244     -0.005781
O	      4.28039      8.34722      6.46019         0.009084     -0.008861      0.000846
O	      4.32907      0.12920      2.10625        -0.000447      0.002497      0.004152
O	      8.29518      6.40503      4.13808        -0.008280     -0.000097     -0.003119
O	      0.03378      2.20177      4.29562         0.005449     -0.000300     -0.000866
O	      6.22303      4.18392      8.38700        -0.004092      0.002001      0.016082
O	      1.91160      4.46775      0.23934        -0.006954      0.001537      0.008472
O	      8.40589      4.37565      2.08962        -0.002896     -0.007556     -0.006123
O	      8.15315      4.02819      6.55140        -0.011445      0.005269      0.014402
O	      4.30977      2.10699      0.05862         0.008004     -0.005489      0.005697
O	      4.03415      6.40924      8.28383         0.003697     -0.001709      0.000311
O	      2.11976      0.08040      4.19341         0.001073     -0.011514      0.001740
O	      6.17309      8.36155      4.10928        -0.006551     -0.014734      0.003442
O	      2.11253      6.43453      6.39070         0.002144      0.005154     -0.006281
O	      6.25280      2.13115      2.03961         0.001217     -0.004442      0.011185
O	      4.20552      4.14224      2.11645        -0.003853     -0.000786     -0.005995
O	      4.24232      4.35071      6.19878        -0.004827     -0.004305      0.000802
O	      8.21871      2.11052      8.40654        -0.009585      0.005262     -0.012589
O	      0.04225      6.33554      0.08746         0.003099     -0.006368     -0.002170
O	      8.27658      0.06590      6.33448        -0.001133     -0.006209     -0.005017
O	      8.27817      8.38989      2.10021         0.003549     -0.003828     -0.002067
O	      4.25952      6.26212      4.25704        -0.011138      0.000066     -0.019771
O	      4.14465      2.17739      4.13091        -0.015354      0.015836     -0.009845
O	      6.28485      2.17180      6.38192        -0.000560     -0.000916     -0.010641
O	      2.06362      6.36866      2.07750        -0.009095     -0.004156     -0.001516
O	      2.28100      4.05617      3.96706         0.002163     -0.000857     -0.005035
O	      6.18947      4.34227      4.29370         0.002520     -0.004131      0.004764
O	      6.41908      0.15429      0.11284         0.012426      0.013139      0.000207
O	      2.05065      8.36973      8.57747         0.002108     -0.006872      0.008532
O	      6.35433      6.38875      2.16840        -0.007493      0.007001      0.002818
O	      1.92179      2.18682      6.19399        -0.002816      0.000859      0.002667
O	      2.01702      2.16608     10.60089        -0.013646      0.014804      0.000694
O	      6.23485      6.14935     14.65937        -0.000398     -0.005987     -0.000942
O	      4.12881      8.23073     14.87177         0.004219      0.007524      0.002027
O	      4.23553      8.24135     10.38649         0.002138     -0.009805      0.008956
O	      8.27022      6.31833     12.52732        -0.000275     -0.006475      0.007005
O	      0.17941      1.80000     12.82964        -0.002401      0.003089      0.019468
O	      6.58611      3.92016     16.58640        -0.006029      0.000909     -0.014501
O	      2.03494      4.33313      8.42563        -0.003088     -0.001836      0.000443
O	      0.13597      4.37163     10.27823        -0.010972      0.014290     -0.003014
O	      0.00666      4.03881     14.73955         0.001537      0.000053      0.008875
O	      4.17715      2.09686      8.25333        -0.010214     -0.010638     -0.005398
O	      4.13521      6.31765     16.70958        -0.003529      0.011739     -0.000822
O	      2.03759      8.37453     12.68364        -0.003014     -0.000046     -0.003377
O	      6.36241      8.25342     12.58059         0.009443      0.003949     -0.011111
O	      2.11244      6.28563     14.56360         0.016009     -0.010722     -0.002786
O	      6.14478      2.00625     10.45135        -0.014262     -0.000663     -0.006267
O	      4.12431      4.25756     10.52981         0.001398      0.002831      0.006313
O	      4.29871      4.15597     14.82257         0.000557      0.008455      0.010890
O	      0.03043      2.04155     16.72970         0.003351     -0.003487      0.009262
O	      8.37532      6.32757      8.44662        -0.010753     -0.000540     -0.003431
O	      0.04079      8.29873     14.73159         0.008564     -0.002252      0.007083
O	      8.22919      8.28575     10.62168         0.003955      0.000211      0.003883
O	      4.27744      6.38731     12.77454         0.002650      0.003989      0.004149
O	      4.17150      1.95548     12.67701        -0.006641      0.002566      0.001737
O	      6.40459      1.97350     14.76120        -0.002567     -0.002980     -0.000816
O	      1.99991      6.23289     10.45326         0.007011     -0.002948     -0.000784
O	      2.05188      4.02043     12.49024        -0.016530     -0.000371     -0.001525
O	      6.23159      4.22150     12.74918        -0.006550      0.000460      0.002301
O	      6.14070      0.10873      8.55546         0.003849     -0.005213     -0.005198
O	      2.24088      0.05286     16.74306        -0.008936      0.017946     -0.002205
O	      6.32008      6.34796     10.56958         0.006827      0.003299      0.014826
O	      2.10432      1.88781     14.64960        -0.002509      0.008151     -0.002988
O	      2.28463      2.01150     19.05670         0.000140     -0.014121      0.005848
O	      6.36564      6.34094     23.05188         0.005586      0.005552      0.005717
O	      4.34635      0.03571     23.10212        -0.005015      0.009645     -0.000704
O	      4.39428      0.06914     18.87485        -0.010478     -0.002317      0.002816
O	      0.11160      6.37407     21.07249         0.005420     -0.002199     -0.010402
O	      0.11246      2.08399     21.10570         0.000082      0.009201     -0.006519
O	      6.42480      4.17773     25.15677        -0.006090      0.000272      0.007857
O	      2.11441      4.05944     16.81582         0.006842      0.001488     -0.006339
O	      0.05778      4.27223     18.80217         0.000310      0.001361     -0.007548
O	      8.37626      4.16343     23.25058         0.006772      0.002689      0.002880
O	      4.36208      1.95309     16.90576         0.002099     -0.007288     -0.001964
O	      4.17063      6.31243     25.15479         0.001702     -0.003883     -0.002840
O	      2.10557      0.14556     21.03763        -0.000496     -0.010768     -0.005546
O	      6.51451      0.01381     20.96982        -0.005833     -0.000007     -0.006719
O	      2.26731      6.33298     23.27252        -0.002854      0.001643     -0.009879
O	      6.32931      2.00635     18.85700        -0.008724      0.006594     -0.008083
O	      4.22585      4.13961     19.04676        -0.003159     -0.005266     -0.003299
O	      4.48526      4.48661     22.87684         0.003994      0.004810      0.005233
O	      8.35125      2.25348     25.20642         0.007894      0.005626     -0.000993
O	      0.02284      6.16641     16.92286        -0.007380     -0.015480      0.003847
O	      8.33816      0.15993     23.05447        -0.018000      0.005306     -0.007333
O	      0.05976      8.38223     19.02075         0.005793     -0.001976     -0.005039
O	      4.37599      6.38330     21.06126        -0.001823      0.005417     -0.000545
O	      4.26858      2.21151     20.94026         0.001394     -0.005066      0.013137
O	      6.44111      2.25285     23.19450         0.004227      0.004593      0.009285
O	      2.16175      6.34740     18.97384        -0.001359      0.003987      0.005265
O	      2.23161      4.10961     21.13003         0.016978      0.008264      0.008359
O	      6.40701      4.31541     21.05844        -0.012181     -0.005388     -0.006513
O	      6.27556      0.00708     16.90797         0.000737     -0.009477      0.005234
O	      2.08193      0.01603      0.01747        -0.015562      0.014915      0.009771
O	      6.64472      6.50454     19.14429         0.004713     -0.001712      0.018296
O	      2.06765      2.07261     23.05354        -0.005597     -0.009516      0.003109
