ITEM: TIMESTEP
0
ITEM: NUMBER OF ATOMS
30
ITEM: BOX BOUNDS xy xz yz pp pp pp
-2.5217303700000002e+00 5.0434607400000004e+00 -2.5217303700000002e+00
0.0000000000000000e+00 4.3677655399999997e+00 0.0000000000000000e+00
0.0000000000000000e+00 1.3577357367999999e+01 0.0000000000000000e+00
ITEM: ATOMS id type x y z fx fy fz
1 2       0.000000000000       0.000000000000       1.957030000000      -0.000005373680      -0.000029694166      -0.091143839774
2 2       0.000000000000       2.911840000000       0.305870000000      -0.000005798668       0.000057110629       0.091070096630
3 2       2.521730000000       1.455920000000       2.568750000000      -0.000006814552       0.000051675530       0.091137239770
4 2       0.000000000000       2.911840000000       4.219930000000      -0.000005548235       0.000077222665      -0.091123015923
5 2       2.521730000000       1.455920000000       6.482810000000      -0.000008075766       0.000030551663      -0.091036500549
6 2       0.000000000000       0.000000000000       4.831650000000       0.000014715281       0.000002856216       0.091167503172
7 2       0.000000000000       2.911840000000       7.094550000000      -0.000005948214       0.000057022095       0.091057516559
8 2       0.000000000000       0.000000000000       8.745710000000      -0.000007160024      -0.000029613185      -0.091146842228
9 2       0.000000000000       2.911840000000      11.008610000000       0.000000766103       0.000077604259      -0.091128982751
10 2       2.521730000000       1.455920000000       9.357430000000       0.000013446162       0.000052672861       0.091130220144
11 2       0.000000000000       0.000000000000      11.620330000000      -0.000017413643       0.000003066965       0.091163877901
12 2       2.521730000000       1.455920000000      13.271490000000       0.000021146574       0.000030504225      -0.091048903043
13 1       4.279360000000       1.323460000000       3.394340000000      -0.055433593614       0.096029746500      -0.000010571046
14 1       1.528200000000       0.000000000000       3.394340000000       0.110883613171      -0.000015942046       0.000026475120
15 1       1.757630000000       3.044310000000       3.394340000000      -0.055432303916      -0.096110376530      -0.000016432357
16 1       3.285830000000       0.132460000000       1.131440000000       0.055487383684      -0.095975624991       0.000105317954
17 1       3.285830000000       2.779380000000       1.131440000000       0.055363607966       0.096047113466       0.000129140338
18 1       0.993530000000       1.455920000000       1.131440000000      -0.110848317778      -0.000063006624       0.000138576827
19 1       1.757630000000       2.779380000000       7.920120000000      -0.055358061160       0.096045559402       0.000121202928
20 1       4.049930000000       1.455920000000       7.920120000000       0.110850448812      -0.000060716262       0.000126132011
21 1       1.757630000000       0.132460000000       7.920120000000      -0.055478167312      -0.095976054287       0.000089625472
22 1       0.764100000000       1.588390000000       5.657240000000       0.055365103401      -0.096122234967      -0.000133344883
23 1       0.764100000000       4.235310000000       5.657240000000       0.055483719864       0.095879181583      -0.000122360447
24 1      -1.528200000000       2.911840000000       5.657240000000      -0.110855804797       0.000140635359      -0.000127839861
25 1      -0.764100000000       4.235310000000      12.445920000000      -0.055489518706       0.095878704793      -0.000135230282
26 1       1.528200000000       2.911840000000      12.445920000000       0.110855912433       0.000144578040      -0.000141755808
27 1      -0.764100000000       1.588390000000      12.445920000000      -0.055368825262      -0.096124940854      -0.000142727974
28 1      -1.757630000000       3.044310000000      10.183020000000       0.055425564968      -0.096111032630      -0.000018072881
29 1       0.764100000000       1.323460000000      10.183020000000       0.055438954615       0.096028331378      -0.000012048856
30 1       3.515260000000       0.000000000000      10.183020000000      -0.110877657706      -0.000014901086       0.000025543835
