ITEM: TIMESTEP
0
ITEM: NUMBER OF ATOMS
40
ITEM: BOX BOUNDS pp pp pp
0.0000000000000000e+00 8.6789013579999992e+00
0.0000000000000000e+00 5.0539967060000004e+00
0.0000000000000000e+00 9.2866794699999993e+00
ITEM: ATOMS id type v_vir_xx v_vir_yy v_vir_zz v_vir_xy v_vir_xz v_vir_yz
1 2      -2.408015510338      -2.917260138174      -2.818628026937       0.694044445707       1.114920977792      -1.232580522766
2 2      -2.407990246637      -2.917241472039      -2.818617339807      -0.694020483402      -1.114909420779      -1.232572530851
3 2      -4.203559593877      -4.816365783958      -3.785857464754      -0.577744232736      -0.435300629432       0.593997628540
4 2      -4.203632145907      -4.816573902824      -3.785903017524       0.577743279065       0.435306428531       0.594002506577
5 2      -3.175863200043      -3.644931471105      -2.852477029835      -0.246848960288       0.717283927763      -0.080479434102
6 2      -3.316536972330      -3.990949533067      -4.428724280920       0.319772764788      -0.608361982263      -1.339728478455
7 2      -3.316546223257      -3.991038048657      -4.428790890833      -0.319811859613       0.608342569489      -1.339666107478
8 2      -3.175852570129      -3.644948947461      -2.852484221667       0.246815981740      -0.717245827759      -0.080490923239
9 2      -4.204251610351      -4.815543038160      -3.783987839684       0.577559748595      -0.435829397127      -0.594520571121
10 2      -4.204216148656      -4.815649497557      -3.784021540538      -0.577633647336       0.435845622516      -0.594543824120
11 2      -2.410332899643      -2.917256213954      -2.820879971732      -0.693317739681       1.117629814952       1.229329654421
12 2      -2.410383016224      -2.917265907261      -2.820915743668       0.693411303145      -1.117592823486       1.229305746930
13 2      -3.173361680319      -3.643683790597      -2.851332293327      -0.248749584191      -0.717195725794       0.077110831169
14 2      -3.310275393358      -3.993324875451      -4.428989829894      -0.319735861844      -0.607192296425       1.338890963560
15 2      -3.310287047300      -3.993410698764      -4.428991836135       0.319832632466       0.607245479452       1.338898065457
16 2      -3.173328542941      -3.643718598887      -2.851303779799       0.248736466429       0.717228566297       0.077163607202
17 1       0.685888809081       1.011992930969       0.686616425297       0.297116993235       0.690061605072      -0.725183156914
18 1       0.192011695349       0.856596227206       1.038803653190      -0.367345955056      -0.884925043857      -0.425428780002
19 1       1.271547796151       1.116908170798       0.569143622334      -0.273163808332      -0.422038527115      -0.686255708675
20 1       2.445971490706       2.599453035488       2.594576787542      -0.395316740557      -0.725138517272      -0.893260321057
21 1       0.685854172528       1.011957421825       0.686601710744      -0.297125914658      -0.690039737335      -0.725190696252
22 1       2.254718452308       1.907463416326       1.984451617299      -0.053380907341      -0.144742981626      -0.365887659050
23 1       1.271469576004       1.116995791777       0.569139505856       0.273110785043       0.422048008196      -0.686337446665
24 1       2.445989761465       2.599412461097       2.594551018104       0.395343575857       0.725101715999      -0.893282376591
25 1       2.254834585646       1.906103627608       1.984446116064      -0.054078289319       0.145058446650       0.366083630622
26 1       0.686428964302       1.005859733566       0.684962303119      -0.295374748717       0.690229590738       0.725321777681
27 1       2.443495501524       2.596742259924       2.593013072080      -0.393993745608       0.727593671905       0.894089658088
28 1       1.271130033864       1.115832934691       0.568291102977      -0.273926344353       0.421724796002       0.685087154932
29 1       0.190701413133       0.859882498920       1.040151888218      -0.370124602162       0.882861067220       0.425276583834
30 1       0.686449163909       1.005891800057       0.685003235303       0.295332532026      -0.690270727724       0.725331321483
31 1       1.420011244617       2.503718429464       2.037544286375      -0.010389324422       0.211567254152       0.136197381081
32 1       1.417848796451       2.504951450566       2.037984855724      -0.012083998697      -0.211398732313      -0.133796404142
33 1       0.190694496309       0.859914346147       1.040124504472       0.370099537357      -0.882849008466       0.425265626262
34 1       2.254775957266       1.907502799486       1.984478948402       0.053392344658       0.144741785963      -0.365888718501
35 1       1.420097348028       2.503766144716       2.037615770354       0.010447500458      -0.211571172680       0.136239649978
36 1       1.417772302234       2.504945981682       2.037986463768       0.012011079851       0.211390408808      -0.133789330099
37 1       2.254820434541       1.906075069549       1.984446864776       0.054083852267      -0.145071059233       0.366094244067
38 1       0.192017607329       0.856591576283       1.038824237906       0.367354318032       0.884935068104      -0.425432801083
39 1       2.443478823086       2.596738530344       2.593022314007       0.393972869770      -0.727596854267       0.894082126336
40 1       1.271164709794       1.115742538221       0.568356202516       0.273906601199      -0.421701031117       0.685055737838
