ITEM: TIMESTEP
0
ITEM: NUMBER OF ATOMS
40
ITEM: BOX BOUNDS pp pp pp
0.0000000000000000e+00 8.6789013579999992e+00
0.0000000000000000e+00 5.0539967060000004e+00
0.0000000000000000e+00 9.2866794699999993e+00
ITEM: ATOMS id type x y z fx fy fz
1 2       1.366060000000       1.559830000000       8.241860000000      -0.104776150759       0.201951788364      -0.054499858440
2 2       3.080930000000       4.086830000000       8.241860000000       0.104811420412       0.201864141712      -0.054459546524
3 2       5.707710000000       0.902010000000       7.414310000000       0.104755122415      -0.110717245708      -0.045141760554
4 2       7.418180000000       3.429010000000       7.414310000000      -0.104771216894      -0.110793587765      -0.045108782217
5 2       4.664880000000       3.421780000000       5.538240000000      -0.140562258597      -0.018469926723      -0.019578476141
6 2       1.458400000000       3.468570000000       5.659960000000      -0.145801988859       0.034174315786      -0.257340335506
7 2       2.988590000000       0.941570000000       5.659960000000       0.145755855964       0.034258481428      -0.257355812624
8 2       8.461010000000       0.894780000000       5.538250000000       0.140594020927      -0.018395937126      -0.019711435957
9 2       1.368030000000       1.624460000000       2.771000000000       0.108153751265       0.111344463370      -0.045066106385
10 2       3.078970000000       4.151450000000       2.771000000000      -0.108277845464       0.111496841771      -0.045064489562
11 2       5.704740000000       0.967820000000       3.598660000000      -0.102110115986      -0.205164795098      -0.057598933040
12 2       7.421150000000       3.494820000000       3.598660000000       0.102184157442      -0.205234930216      -0.057597849161
13 2       4.121950000000       1.632540000000       0.895050000000       0.141891666142       0.018471888930      -0.019680738255
14 2       5.797790000000       4.112420000000       1.016380000000      -0.147110591594      -0.034300660482      -0.255701482590
15 2       7.328110000000       1.585430000000       1.016380000000       0.146928170261      -0.034453100916      -0.255678240809
16 2       0.325030000000       4.159540000000       0.895050000000      -0.141708608689       0.018561926015      -0.019649147120
17 1       7.247780000000       1.765500000000       4.390770000000       0.075962169187      -0.069346193482      -0.046669533475
18 1       0.025390000000       0.763540000000       0.019490000000      -0.029178187164       0.067100196487       0.136871043801
19 1       7.285800000000       0.109150000000       6.863170000000       0.135672613126      -0.074007098279       0.041841397145
20 1       7.221280000000       4.929560000000       2.120170000000       0.034014516677       0.226367435938       0.079932939878
21 1       5.878110000000       4.292490000000       4.390760000000      -0.075974489802      -0.069218873714      -0.046688759126
22 1       7.351520000000       3.309850000000       9.272300000000       0.000353181771       0.025221761835       0.064571565517
23 1       5.840090000000       2.636160000000       6.863180000000      -0.135827177258      -0.074193982940       0.041757370698
24 1       5.904620000000       2.402560000000       2.120180000000      -0.034052416402       0.226411902634       0.079838403898
25 1       1.434740000000       1.744020000000       4.629080000000      -0.000730207556      -0.025225558090       0.064096795580
26 1       2.908860000000       0.762060000000       9.034220000000       0.074373082326       0.068029213166      -0.047942528669
27 1       1.565910000000       0.124010000000       6.764080000000      -0.037050556230      -0.224280479686       0.078986415692
28 1       1.500620000000       4.944270000000       2.220000000000      -0.134917334560       0.074552522913       0.042758212678
29 1       0.082710000000       4.290980000000       4.662930000000       0.028440053938      -0.068436660745       0.137279877886
30 1       1.538130000000       3.289060000000       9.034220000000      -0.074428400270       0.068067927258      -0.047885522601
31 1       0.162800000000       2.411920000000       6.813750000000      -0.075880383303       0.057171104708       0.102186235498
32 1       8.623590000000       2.641700000000       2.170600000000       0.073041568043      -0.054532285731       0.100737377025
33 1       4.364280000000       1.763980000000       4.662930000000      -0.028452062699      -0.068414276795       0.137297835857
34 1       5.774370000000       0.782850000000       9.272300000000      -0.000312178053       0.025232940529       0.064593519389
35 1       4.284180000000       4.938920000000       6.813740000000       0.076015175403       0.057189364002       0.102309969703
36 1       4.502300000000       0.114700000000       2.170600000000      -0.072923010086      -0.054518619866       0.100684321361
37 1       3.012250000000       4.271020000000       4.629080000000       0.000735108933      -0.025295493610       0.064069249095
38 1       4.421600000000       3.290530000000       0.019490000000       0.029213082370       0.067198386302       0.136900264953
39 1       2.881070000000       2.651000000000       6.764090000000       0.037061894878      -0.224199700968       0.078897927679
40 1       2.946380000000       2.417270000000       2.220000000000       0.134888568743       0.074532804790       0.042808615424
