ITEM: TIMESTEP
0
ITEM: NUMBER OF ATOMS
80
ITEM: BOX BOUNDS pp pp pp
0.0000000000000000e+00 9.4485883330000000e+00
0.0000000000000000e+00 9.4485883330000000e+00
0.0000000000000000e+00 9.4485883330000000e+00
ITEM: ATOMS id type v_vir_xx v_vir_yy v_vir_zz v_vir_xy v_vir_xz v_vir_yz
1 2      -5.206228735856      -5.206275156265      -5.206218998057      -0.951205646649       0.951230511825       0.951209099029
2 2      -4.422048077603      -4.222068709631      -4.419771013593      -0.000000127789       0.581096966290       0.000013937188
3 2      -4.419844305055      -4.422016837180      -4.222235687729       0.581025261293       0.000002912318       0.000001961229
4 2      -4.419832933955      -4.422044565973      -4.222065123591      -0.581069935299       0.000011073917      -0.000005343036
5 2      -4.222235687729      -4.419844305055      -4.422016837180       0.000002912318       0.000001961230       0.581025261293
6 2      -4.222262344107      -4.419740261270      -4.422051176619      -0.000027924929       0.000007186012      -0.581036934265
7 2      -4.422044565973      -4.222065123591      -4.419832933955      -0.000005343036      -0.581069935299       0.000011073917
8 2      -5.206218998057      -5.206228735856      -5.206275156265       0.951230511825       0.951209099029      -0.951205646649
9 2      -5.206236713915      -5.206236713915      -5.206236713915      -0.951214896100      -0.951214896100      -0.951214896100
10 2      -5.206275156265      -5.206218998057      -5.206228735856       0.951209099029      -0.951205646649       0.951230511825
11 2      -4.422051176619      -4.222262344107      -4.419740261270       0.000007186012      -0.581036934265      -0.000027924929
12 2      -4.222065123591      -4.419832933955      -4.422044565973       0.000011073917      -0.000005343036      -0.581069935299
13 2      -4.222068709631      -4.419771013593      -4.422048077603       0.000013937188      -0.000000127789       0.581096966290
14 2      -4.419740261270      -4.422051176619      -4.222262344107      -0.581036934265      -0.000027924929       0.000007186012
15 2      -4.419771013593      -4.422048077603      -4.222068709631       0.581096966290       0.000013937188      -0.000000127789
16 2      -4.422016837180      -4.222235687729      -4.419844305055       0.000001961229       0.581025261293       0.000002912318
17 2      -5.206257448423      -5.206211031933      -5.206267189610      -0.951224706924       0.951199843762       0.951221256315
18 2      -4.422014402155      -4.222210437182      -4.419823463675      -0.000005521077       0.581053201094      -0.000017839382
19 2      -4.419770627638      -4.422067092682      -4.222222850353       0.581080292052       0.000000983341       0.000003678191
20 2      -4.419761562466      -4.422017913242      -4.222214031614      -0.581080226176       0.000013008653      -0.000003629866
21 2      -4.222222850353      -4.419770627638      -4.422067092682       0.000000983341       0.000003678191       0.581080292052
22 2      -4.222196182768      -4.419874653345      -4.422032740890       0.000003849020       0.000001788433      -0.581068616836
23 2      -4.422017913242      -4.222214031614      -4.419761562466      -0.000003629866      -0.581080226176       0.000013008653
24 2      -5.206267189610      -5.206257448423      -5.206211031933       0.951199843762       0.951221256315      -0.951224706924
25 2      -5.206249480948      -5.206249480948      -5.206249480948      -0.951215451999      -0.951215451999      -0.951215451999
26 2      -5.206211031933      -5.206267189610      -5.206257448423       0.951221256315      -0.951224706924       0.951199843762
27 2      -4.422032740890      -4.222196182768      -4.419874653345       0.000001788433      -0.581068616836       0.000003849020
28 2      -4.222214031614      -4.419761562466      -4.422017913242       0.000013008653      -0.000003629866      -0.581080226176
29 2      -4.222210437182      -4.419823463675      -4.422014402155      -0.000017839382      -0.000005521077       0.581053201094
30 2      -4.419874653345      -4.422032740890      -4.222196182768      -0.581068616836       0.000003849020       0.000001788433
31 2      -4.419823463675      -4.422014402155      -4.222210437182       0.581053201094      -0.000017839382      -0.000005521077
32 2      -4.422067092682      -4.222222850353      -4.419770627638       0.000003678191       0.581080292052       0.000000983341
33 1       3.436724718499       3.381334405862       2.920736370088      -0.349975911567       0.692357530013       0.271523178936
34 1       3.436747421520       3.381331301397       2.920749592381       0.349941156102      -0.692339381200       0.271545288004
35 1       3.381301650309       2.920718424619       3.436709594062      -0.271521051674      -0.350004619490      -0.692363809742
36 1       3.381341500818       2.920782098422       3.436761693018       0.271528660150      -0.349968964924       0.692367937020
37 1       3.381306227606       2.920712047891       3.436712748705      -0.271528970486       0.349982085642       0.692354739208
38 1       3.381322354518       2.920745479953       3.436742988723       0.271524497168       0.349974135973      -0.692378870925
39 1       3.436709594062       3.381301650309       2.920718424619      -0.350004619490      -0.692363809742      -0.271521051674
40 1       3.436712748705       3.381306227606       2.920712047891       0.349982085642       0.692354739208      -0.271528970486
41 1       2.920745479953       3.436742988723       3.381322354518      -0.692378870925       0.271524497168       0.349974135973
42 1       2.920752042276       3.436759225033       3.381332067960       0.692390205310      -0.271524576360       0.349968125607
43 1       2.920718424619       3.436709594062       3.381301650309      -0.692363809742      -0.271521051674      -0.350004619490
44 1       2.920736370088       3.436724718499       3.381334405862       0.692357530013       0.271523178936      -0.349975911567
45 1       2.920769063651       3.436758376707       3.381358900884      -0.692388347910      -0.271514561078      -0.349975176771
46 1       2.920712047891       3.436712748705       3.381306227606       0.692354739208      -0.271528970486       0.349982085642
47 1       2.920749592381       3.436747421520       3.381331301397      -0.692339381200       0.271545288004       0.349941156102
48 1       2.920782098422       3.436761693018       3.381341500818       0.692367937020       0.271528660150      -0.349968964924
49 1       3.436759225033       3.381332067960       2.920752042276       0.349968125607       0.692390205310      -0.271524576360
50 1       3.436758376707       3.381358900884       2.920769063651      -0.349975176771      -0.692388347910      -0.271514561077
51 1       3.381332067960       2.920752042276       3.436759225033      -0.271524576360       0.349968125607       0.692390205310
52 1       3.381331301397       2.920749592381       3.436747421520       0.271545288004       0.349941156102      -0.692339381200
53 1       3.381334405862       2.920736370088       3.436724718499       0.271523178936      -0.349975911567       0.692357530013
54 1       3.381358900884       2.920769063651       3.436758376707      -0.271514561077      -0.349975176771      -0.692388347910
55 1       3.436761693018       3.381341500818       2.920782098422      -0.349968964924       0.692367937020       0.271528660150
56 1       3.436742988723       3.381322354518       2.920745479953       0.349974135973      -0.692378870925       0.271524497168
57 1       3.436749885460       3.381350783046       2.920770658228      -0.349973346558       0.692389965128       0.271541608818
58 1       3.436742223612       3.381344073196       2.920746950707       0.349991745562      -0.692392570797       0.271530952915
59 1       3.381354249941       2.920794388161       3.436797634915      -0.271546765242      -0.349950042303      -0.692387448385
60 1       3.381312264801       2.920700624895       3.436741029088       0.271536419641      -0.349981558261       0.692376849320
61 1       3.381355210652       2.920751071915       3.436770416831      -0.271521927467       0.349980660007       0.692399128496
62 1       3.381341229854       2.920747734192       3.436744688143       0.271529129630       0.349992742408      -0.692381458956
63 1       3.436797634915       3.381354249941       2.920794388161      -0.349950042303      -0.692387448385      -0.271546765242
64 1       3.436770416831       3.381355210652       2.920751071915       0.349980660007       0.692399128496      -0.271521927467
65 1       2.920747734192       3.436744688143       3.381341229854      -0.692381458956       0.271529129630       0.349992742408
66 1       2.920774589108       3.436734933974       3.381345438586       0.692348206656      -0.271554402024       0.349968913980
67 1       2.920794388161       3.436797634915       3.381354249941      -0.692387448385      -0.271546765242      -0.349950042303
68 1       2.920770658228       3.436749885460       3.381350783046       0.692389965128       0.271541608818      -0.349973346558
69 1       2.920707876068       3.436711722375       3.381324155002      -0.692352681151      -0.271547499345      -0.349969950418
70 1       2.920751071915       3.436770416831       3.381355210652       0.692399128496      -0.271521927467       0.349980660007
71 1       2.920746950707       3.436742223612       3.381344073196      -0.692392570797       0.271530952915       0.349991745562
72 1       2.920700624895       3.436741029088       3.381312264801       0.692376849320       0.271536419641      -0.349981558261
73 1       3.436734933974       3.381345438586       2.920774589108       0.349968913980       0.692348206656      -0.271554402024
74 1       3.436711722375       3.381324155002       2.920707876068      -0.349969950418      -0.692352681151      -0.271547499345
75 1       3.381345438586       2.920774589108       3.436734933974      -0.271554402024       0.349968913980       0.692348206656
76 1       3.381344073196       2.920746950707       3.436742223612       0.271530952915       0.349991745562      -0.692392570797
77 1       3.381350783046       2.920770658228       3.436749885460       0.271541608818      -0.349973346558       0.692389965128
78 1       3.381324155002       2.920707876068       3.436711722375      -0.271547499345      -0.349969950418      -0.692352681151
79 1       3.436741029088       3.381312264801       2.920700624895      -0.349981558261       0.692376849320       0.271536419641
80 1       3.436744688143       3.381341229854       2.920747734192       0.349992742408      -0.692381458956       0.271529129630
