ITEM: TIMESTEP
0
ITEM: NUMBER OF ATOMS
80
ITEM: BOX BOUNDS pp pp pp
0.0000000000000000e+00 9.4485883330000000e+00
0.0000000000000000e+00 9.4485883330000000e+00
0.0000000000000000e+00 9.4485883330000000e+00
ITEM: ATOMS id type c_pe_atom
1 2      -6.344113379081
2 2      -6.089944035435
3 2      -6.089894283535
4 2      -6.089910634080
5 2      -6.089894283535
6 2      -6.089897566678
7 2      -6.089910634080
8 2      -6.344113379081
9 2      -6.344101758912
10 2      -6.344113379081
11 2      -6.089897566678
12 2      -6.089910634080
13 2      -6.089944035435
14 2      -6.089897566678
15 2      -6.089944035435
16 2      -6.089894283535
17 2      -6.344124998475
18 2      -6.089845329979
19 2      -6.089892702016
20 2      -6.089878731046
21 2      -6.089892702016
22 2      -6.089889419181
23 2      -6.089878731046
24 2      -6.344124998475
25 2      -6.344136616744
26 2      -6.344124998475
27 2      -6.089889419181
28 2      -6.089878731046
29 2      -6.089845329979
30 2      -6.089889419181
31 2      -6.089845329979
32 2      -6.089892702016
33 1      -5.794861933067
34 1      -5.794712158606
35 1      -5.794985158881
36 1      -5.794793051626
37 1      -5.794890318215
38 1      -5.794921408856
39 1      -5.794985158881
40 1      -5.794890318215
41 1      -5.794921408856
42 1      -5.794834578394
43 1      -5.794985158881
44 1      -5.794861933067
45 1      -5.794761150339
46 1      -5.794890318215
47 1      -5.794712158606
48 1      -5.794793051626
49 1      -5.794834578394
50 1      -5.794761150339
51 1      -5.794834578394
52 1      -5.794712158606
53 1      -5.794861933067
54 1      -5.794761150339
55 1      -5.794793051626
56 1      -5.794921408856
57 1      -5.794862342446
58 1      -5.794885431961
59 1      -5.794740398092
60 1      -5.794860754251
61 1      -5.794818418317
62 1      -5.794859077039
63 1      -5.794740398092
64 1      -5.794818418317
65 1      -5.794859077039
66 1      -5.794834764077
67 1      -5.794740398092
68 1      -5.794862342446
69 1      -5.794891370383
70 1      -5.794818418317
71 1      -5.794885431961
72 1      -5.794860754251
73 1      -5.794834764077
74 1      -5.794891370383
75 1      -5.794834764077
76 1      -5.794885431961
77 1      -5.794862342446
78 1      -5.794891370383
79 1      -5.794860754251
80 1      -5.794859077039
