ITEM: TIMESTEP
0
ITEM: NUMBER OF ATOMS
80
ITEM: BOX BOUNDS pp pp pp
0.0000000000000000e+00 9.4485883330000000e+00
0.0000000000000000e+00 9.4485883330000000e+00
0.0000000000000000e+00 9.4485883330000000e+00
ITEM: ATOMS id type x y z fx fy fz
1 2       7.086440000000       2.362150000000       2.362150000000       0.000023266522      -0.000104528503      -0.000104976679
2 2       7.086440000000       4.385760000000       4.724290000000       0.000039985464      -0.051478824557       0.000066684681
3 2       0.000000000000       7.086440000000       0.338530000000       0.000045058638       0.000032142504       0.051616363400
4 2       0.000000000000       2.362150000000       4.385760000000       0.000055420955      -0.000096028717      -0.051497958292
5 2       0.338530000000       0.000000000000       7.086440000000       0.051616363400       0.000045058638       0.000032142504
6 2       0.338530000000       4.724290000000       2.362150000000       0.051610363595       0.000077056363      -0.000103871297
7 2       2.362150000000       4.385760000000       0.000000000000      -0.000096028717      -0.051497958292       0.000055420955
8 2       2.362150000000       7.086440000000       2.362150000000      -0.000104976679       0.000023266522      -0.000104528503
9 2       2.362150000000       2.362150000000       2.362150000000      -0.000049025307      -0.000049025307      -0.000049025307
10 2       2.362150000000       2.362150000000       7.086440000000      -0.000104528503      -0.000104976679       0.000023266522
11 2       2.362150000000       0.338530000000       4.724290000000      -0.000103871297       0.051610363595       0.000077056363
12 2       4.385760000000       0.000000000000       2.362150000000      -0.051497958292       0.000055420955      -0.000096028717
13 2       4.385760000000       4.724290000000       7.086440000000      -0.051478824557       0.000066684681       0.000039985464
14 2       4.724290000000       2.362150000000       0.338530000000       0.000077056363      -0.000103871297       0.051610363595
15 2       4.724290000000       7.086440000000       4.385760000000       0.000066684681       0.000039985464      -0.051478824557
16 2       7.086440000000       0.338530000000       0.000000000000       0.000032142504       0.051616363400       0.000045058638
17 2       2.362150000000       7.086440000000       7.086440000000      -0.000067131952       0.000032542193       0.000014433834
18 2       2.362150000000       9.110050000000       0.000000000000      -0.000073752070      -0.051475587539       0.000007598775
19 2       4.724290000000       2.362150000000       5.062830000000       0.000029211018      -0.000065912133       0.051490825862
20 2       4.724290000000       7.086440000000       9.110050000000       0.000039576076       0.000002021672      -0.051456453651
21 2       5.062830000000       4.724290000000       2.362150000000       0.051490825862       0.000029211018      -0.000065912133
22 2       5.062830000000       0.000000000000       7.086440000000       0.051496827155       0.000017957679       0.000009861416
23 2       7.086440000000       9.110050000000       4.724290000000       0.000002021672      -0.051456453651       0.000039576076
24 2       7.086440000000       2.362150000000       7.086440000000       0.000014433834      -0.000067131952       0.000032542193
25 2       7.086440000000       7.086440000000       7.086440000000       0.000023711098       0.000023711098       0.000023711098
26 2       7.086440000000       7.086440000000       2.362150000000       0.000032542193       0.000014433834      -0.000067131952
27 2       7.086440000000       5.062830000000       0.000000000000       0.000009861416       0.051496827155       0.000017957679
28 2       9.110050000000       4.724290000000       7.086440000000      -0.051456453651       0.000039576076       0.000002021672
29 2       9.110050000000       0.000000000000       2.362150000000      -0.051475587539       0.000007598775      -0.000073752070
30 2       0.000000000000       7.086440000000       5.062830000000       0.000017957679       0.000009861416       0.051496827155
31 2       0.000000000000       2.362150000000       9.110050000000       0.000007598775      -0.000073752070      -0.051475587539
32 2       2.362150000000       5.062830000000       4.724290000000      -0.000065912133       0.051490825862       0.000029211018
33 1       8.368220000000       5.778730000000       1.494560000000      -0.039744914442       0.023765247102       0.012247617217
34 1       8.368220000000       3.669860000000       3.229730000000      -0.039776180788      -0.023772160838      -0.012165214478
35 1       8.394160000000       1.494560000000       1.080370000000      -0.023852364563       0.012212151589       0.039715259965
36 1       8.394160000000       3.229730000000       5.804670000000      -0.023837034406      -0.012145470998       0.039632550264
37 1       1.054430000000       3.229730000000       1.080370000000       0.023840870717      -0.012127461492       0.039720226166
38 1       1.054430000000       1.494560000000       5.804670000000       0.023821523534       0.012214607708       0.039607151639
39 1       1.080370000000       8.394160000000       1.494560000000       0.039715259965      -0.023852364563       0.012212151589
40 1       1.080370000000       1.054430000000       3.229730000000       0.039720226166       0.023840870717      -0.012127461492
41 1       1.494560000000       5.804670000000       1.054430000000       0.012214607708       0.039607151639       0.023821523534
42 1       1.494560000000       3.643920000000       3.669860000000       0.012260758457      -0.039654824797      -0.023748826101
43 1       1.494560000000       1.080370000000       8.394160000000       0.012212151589       0.039715259965      -0.023852364563
44 1       1.494560000000       8.368220000000       5.778730000000       0.012247617217      -0.039744914442       0.023765247102
45 1       3.229730000000       3.643920000000       5.778730000000      -0.012189336572      -0.039653928360       0.023745922314
46 1       3.229730000000       1.080370000000       1.054430000000      -0.012127461492       0.039720226166       0.023840870717
47 1       3.229730000000       8.368220000000       3.669860000000      -0.012165214478      -0.039776180788      -0.023772160838
48 1       3.229730000000       5.804670000000       8.394160000000      -0.012145470998       0.039632550264      -0.023837034406
49 1       3.643920000000       3.669860000000       1.494560000000      -0.039654824797      -0.023748826101       0.012260758457
50 1       3.643920000000       5.778730000000       3.229730000000      -0.039653928360       0.023745922314      -0.012189336572
51 1       3.669860000000       1.494560000000       3.643920000000      -0.023748826101       0.012260758457      -0.039654824797
52 1       3.669860000000       3.229730000000       8.368220000000      -0.023772160838      -0.012165214478      -0.039776180788
53 1       5.778730000000       1.494560000000       8.368220000000       0.023765247102       0.012247617217      -0.039744914442
54 1       5.778730000000       3.229730000000       3.643920000000       0.023745922314      -0.012189336572      -0.039653928360
55 1       5.804670000000       8.394160000000       3.229730000000       0.039632550264      -0.023837034406      -0.012145470998
56 1       5.804670000000       1.054430000000       1.494560000000       0.039607151639       0.023821523534       0.012214607708
57 1       3.643920000000       1.054430000000       6.218850000000      -0.039645817379       0.023806295281       0.012242227522
58 1       3.643920000000       8.394160000000       7.954030000000      -0.039663736120      -0.023820605633      -0.012253032986
59 1       3.669860000000       6.218850000000       5.804670000000      -0.023726372704       0.012276853497       0.039607077454
60 1       3.669860000000       7.954030000000       1.080370000000      -0.023744533160      -0.012269630248       0.039712667381
61 1       5.778730000000       7.954030000000       5.804670000000       0.023722270845      -0.012285364756       0.039598698429
62 1       5.778730000000       6.218850000000       1.080370000000       0.023738812458       0.012272091604       0.039688889642
63 1       5.804670000000       3.669860000000       6.218850000000       0.039607077454      -0.023726372704       0.012276853497
64 1       5.804670000000       5.778730000000       7.954030000000       0.039598698429       0.023722270845      -0.012285364756
65 1       6.218850000000       1.080370000000       5.778730000000       0.012272091604       0.039688889642       0.023738812458
66 1       6.218850000000       8.368220000000       8.394160000000       0.012231388923      -0.039762210566      -0.023841128316
67 1       6.218850000000       5.804670000000       3.669860000000       0.012276853497       0.039607077454      -0.023726372704
68 1       6.218850000000       3.643920000000       1.054430000000       0.012242227522      -0.039645817379       0.023806295281
69 1       7.954030000000       8.368220000000       1.054430000000      -0.012226620123      -0.039759683405       0.023828435317
70 1       7.954030000000       5.804670000000       5.778730000000      -0.012285364756       0.039598698429       0.023722270845
71 1       7.954030000000       3.643920000000       8.394160000000      -0.012253032986      -0.039663736120      -0.023820605633
72 1       7.954030000000       1.080370000000       3.669860000000      -0.012269630247       0.039712667381      -0.023744533160
73 1       8.368220000000       8.394160000000       6.218850000000      -0.039762210566      -0.023841128316       0.012231388923
74 1       8.368220000000       1.054430000000       7.954030000000      -0.039759683405       0.023828435317      -0.012226620123
75 1       8.394160000000       6.218850000000       8.368220000000      -0.023841128316       0.012231388923      -0.039762210566
76 1       8.394160000000       7.954030000000       3.643920000000      -0.023820605633      -0.012253032986      -0.039663736120
77 1       1.054430000000       6.218850000000       3.643920000000       0.023806295281       0.012242227522      -0.039645817379
78 1       1.054430000000       7.954030000000       8.368220000000       0.023828435317      -0.012226620123      -0.039759683405
79 1       1.080370000000       3.669860000000       7.954030000000       0.039712667381      -0.023744533160      -0.012269630248
80 1       1.080370000000       5.778730000000       6.218850000000       0.039688889642       0.023738812458       0.012272091604
