80
Config_type=bulk_delta_phase Weight=1.0 Lattice="9.448588333 0.000000000 0.000000000 0.000000000 9.448588333 0.000000000 0.000000000 0.000000000 9.448588333" Energy=-680.17476160 Virial="-11.03302 -0.00001 -0.00001 -0.00001 -11.03297 -0.00002 -0.00001 -0.00002 -11.03298" pbc="T T T" Properties=species:S:1:pos:R:3:forces:R:3
Ga	      7.08644      2.36215      2.36215         0.000062     -0.000171     -0.000177
Ga	      7.08644      4.38576      4.72429         0.000079     -0.011508      0.000074
Ga	      0.00000      7.08644      0.33853         0.000065      0.000078      0.011641
Ga	      0.00000      2.36215      4.38576         0.000081     -0.000153     -0.011524
Ga	      0.33853      0.00000      7.08644         0.011645      0.000059      0.000076
Ga	      0.33853      4.72429      2.36215         0.011641      0.000094     -0.000165
Ga	      2.36215      4.38576      0.00000        -0.000151     -0.011523      0.000078
Ga	      2.36215      7.08644      2.36215        -0.000176      0.000072     -0.000177
Ga	      2.36215      2.36215      2.36215        -0.000107     -0.000103     -0.000109
Ga	      2.36215      2.36215      7.08644        -0.000172     -0.000174      0.000069
Ga	      2.36215      0.33853      4.72429        -0.000163      0.011638      0.000097
Ga	      4.38576      0.00000      2.36215        -0.011523      0.000077     -0.000157
Ga	      4.38576      4.72429      7.08644        -0.011503      0.000072      0.000081
Ga	      4.72429      2.36215      0.33853         0.000091     -0.000161      0.011644
Ga	      4.72429      7.08644      4.38576         0.000075      0.000083     -0.011507
Ga	      7.08644      0.33853      0.00000         0.000076      0.011654      0.000062
Ga	      2.36215      7.08644      7.08644        -0.000142      0.000097      0.000064
Ga	      2.36215      9.11005      0.00000        -0.000136     -0.011439      0.000012
Ga	      4.72429      2.36215      5.06283         0.000030     -0.000120      0.011498
Ga	      4.72429      7.08644      9.11005         0.000039      0.000045     -0.011422
Ga	      5.06283      4.72429      2.36215         0.011505      0.000031     -0.000122
Ga	      5.06283      0.00000      7.08644         0.011500      0.000033      0.000050
Ga	      7.08644      9.11005      4.72429         0.000044     -0.011429      0.000055
Ga	      7.08644      2.36215      7.08644         0.000060     -0.000138      0.000089
Ga	      7.08644      7.08644      7.08644         0.000073      0.000068      0.000064
Ga	      7.08644      7.08644      2.36215         0.000093      0.000054     -0.000138
Ga	      7.08644      5.06283      0.00000         0.000054      0.011508      0.000032
Ga	      9.11005      4.72429      7.08644        -0.011425      0.000052      0.000042
Ga	      9.11005      0.00000      2.36215        -0.011438      0.000010     -0.000136
Ga	      0.00000      7.08644      5.06283         0.000035      0.000050      0.011504
Ga	      0.00000      2.36215      9.11005         0.000019     -0.000131     -0.011438
Ga	      2.36215      5.06283      4.72429        -0.000127      0.011497      0.000032
O	      8.36822      5.77873      1.49456         0.002227      0.001892     -0.004307
O	      8.36822      3.66986      3.22973         0.002177     -0.001913      0.004435
O	      8.39416      1.49456      1.08037        -0.002040     -0.004307     -0.002254
O	      8.39416      3.22973      5.80467        -0.002011      0.004440     -0.002378
O	      1.05443      3.22973      1.08037         0.001999      0.004394     -0.002231
O	      1.05443      1.49456      5.80467         0.001967     -0.004268     -0.002384
O	      1.08037      8.39416      1.49456        -0.002277     -0.002035     -0.004264
O	      1.08037      1.05443      3.22973        -0.002251      0.001994      0.004403
O	      1.49456      5.80467      1.05443        -0.004294     -0.002352      0.001956
O	      1.49456      3.64392      3.66986        -0.004268      0.002320     -0.001872
O	      1.49456      1.08037      8.39416        -0.004271     -0.002228     -0.002034
O	      1.49456      8.36822      5.77873        -0.004248      0.002225      0.001890
O	      3.22973      3.64392      5.77873         0.004363      0.002350      0.001884
O	      3.22973      1.08037      1.05443         0.004417     -0.002222      0.002011
O	      3.22973      8.36822      3.66986         0.004402      0.002186     -0.001915
O	      3.22973      5.80467      8.39416         0.004403     -0.002353     -0.002014
O	      3.64392      3.66986      1.49456         0.002354     -0.001868     -0.004248
O	      3.64392      5.77873      3.22973         0.002370      0.001868      0.004359
O	      3.66986      1.49456      3.64392        -0.001885     -0.004266      0.002324
O	      3.66986      3.22973      8.36822        -0.001915      0.004402      0.002182
O	      5.77873      1.49456      8.36822         0.001899     -0.004303      0.002237
O	      5.77873      3.22973      3.64392         0.001894      0.004419      0.002344
O	      5.80467      8.39416      3.22973        -0.002374     -0.002001      0.004422
O	      5.80467      1.05443      1.49456        -0.002359      0.001961     -0.004301
O	      3.64392      1.05443      6.21885         0.002334      0.001939     -0.004261
O	      3.64392      8.39416      7.95403         0.002353     -0.001991      0.004213
O	      3.66986      6.21885      5.80467        -0.001857     -0.004274     -0.002375
O	      3.66986      7.95403      1.08037        -0.001868      0.004222     -0.002232
O	      5.77873      7.95403      5.80467         0.001841      0.004253     -0.002399
O	      5.77873      6.21885      1.08037         0.001865     -0.004306     -0.002285
O	      5.80467      3.66986      6.21885        -0.002359     -0.001837     -0.004298
O	      5.80467      5.77873      7.95403        -0.002392      0.001834      0.004247
O	      6.21885      1.08037      5.77873        -0.004267     -0.002308      0.001878
O	      6.21885      8.36822      8.39416        -0.004300      0.002233     -0.002018
O	      6.21885      5.80467      3.66986        -0.004294     -0.002425     -0.001846
O	      6.21885      3.64392      1.05443        -0.004286      0.002363      0.001965
O	      7.95403      8.36822      1.05443         0.004286      0.002223      0.001952
O	      7.95403      5.80467      5.77873         0.004225     -0.002443      0.001847
O	      7.95403      3.64392      8.39416         0.004239      0.002371     -0.001990
O	      7.95403      1.08037      3.66986         0.004254     -0.002255     -0.001877
O	      8.36822      8.39416      6.21885         0.002179     -0.002010     -0.004295
O	      8.36822      1.05443      7.95403         0.002175      0.001966      0.004280
O	      8.39416      6.21885      8.36822        -0.002004     -0.004314      0.002217
O	      8.39416      7.95403      3.64392        -0.001987      0.004266      0.002331
O	      1.05443      6.21885      3.64392         0.001971     -0.004274      0.002329
O	      1.05443      7.95403      8.36822         0.001954      0.004225      0.002202
O	      1.08037      3.66986      7.95403        -0.002257     -0.001862      0.004218
O	      1.08037      5.77873      6.21885        -0.002289      0.001850     -0.004237
