ITEM: TIMESTEP
0
ITEM: NUMBER OF ATOMS
20
ITEM: BOX BOUNDS xy xz yz pp pp pp
-1.3707987893300000e+00 1.2286000853698001e+01 0.0000000000000000e+00
0.0000000000000000e+00 3.0425208399999999e+00 -1.3707987893300000e+00
0.0000000000000000e+00 5.6326698027979996e+00 0.0000000000000000e+00
ITEM: ATOMS id type x y z fx fy fz
1 2       1.524110506067       1.521260000000       1.764847792133       0.080399937853       0.000005425552      -0.096643734966
2 2       3.248093329923       0.000000000000       3.867827512042      -0.080357865798      -0.000005425656       0.096560359175
3 2       0.023919224432       0.000000000000       4.479030141683      -0.004522188405      -0.000006566239      -0.007566523349
4 2       4.748274895155       1.521260000000       1.153642797853       0.004661910256       0.000006566259       0.007460563910
5 2       7.667105007805       0.000000000000       1.764844383901       0.080412058958      -0.000005425643      -0.096615793391
6 2       9.391097548064       1.521260000000       3.867826468450      -0.080532882522       0.000005425653       0.096600277448
7 2       6.166923442573       1.521260000000       4.479029098091      -0.004692041726       0.000006566261      -0.007553584549
8 2      10.891279113296       0.000000000000       1.153641754261       0.004634026895      -0.000006566250       0.007574846189
9 1       5.753484456069       0.000000000000       1.435368271760      -0.092001185258      -0.000007959745       0.022380020090
10 1      -0.981290336481       1.521260000000       4.197304667775       0.092093037622       0.000007959724      -0.022405252220
11 1       1.350579919006       0.000000000000       3.160998530540       0.012235201785      -0.000002370895       0.129915741164
12 1       3.421626281623       1.521260000000       2.471667057232      -0.012396686726       0.000002371008      -0.129782883477
13 1       2.856922372885       1.521260000000       5.022876571160      -0.037145594011       0.000005735010       0.073146409291
14 1       1.915283827744       0.000000000000       0.609789016612       0.037106255300      -0.000005735003      -0.073065834648
15 1      11.896488674210       1.521260000000       1.435367228168      -0.091988073350       0.000007959738       0.022415000638
16 1       5.161713881660       0.000000000000       4.197303624183       0.091990051521      -0.000007959764      -0.022398689420
17 1       7.493572056105       1.521260000000       3.161004838711       0.012434694908       0.000002370985       0.129733964083
18 1       9.564620783361       0.000000000000       2.471663649001      -0.012334317284      -0.000002370993      -0.129747039655
19 1       8.999924226387       0.000000000000       5.022885243971      -0.037136150672      -0.000005735003       0.072911469093
20 1       8.058278329483       1.521260000000       0.609785608381       0.037139810653       0.000005735003      -0.072919315406
