ITEM: TIMESTEP
0
ITEM: NUMBER OF ATOMS
80
ITEM: BOX BOUNDS pp pp pp
0.0000000000000000e+00 8.6260885710000004e+00
0.0000000000000000e+00 1.0046484325000000e+01
0.0000000000000000e+00 9.2301682360000008e+00
ITEM: ATOMS id type c_pe_atom
1 2      -4.760142997016
2 2      -4.760108095869
3 2      -6.214221440427
4 2      -6.214212799378
5 2      -4.171483319997
6 2      -1.919256795462
7 2      -1.919235082523
8 2      -4.171481041025
9 2      -6.214057355442
10 2      -6.214040566514
11 2      -4.760829540224
12 2      -4.760806892323
13 2      -4.169727881793
14 2      -1.919557294447
15 2      -1.919604839363
16 2      -4.169637914451
17 2      -4.760141696044
18 2      -4.760138316309
19 2      -6.214202910359
20 2      -6.214213271213
21 2      -4.171447807541
22 2      -1.919258851686
23 2      -1.919209324404
24 2      -4.171512531100
25 2      -6.214022518432
26 2      -6.214078635419
27 2      -4.760813749945
28 2      -4.760759838810
29 2      -4.169707404360
30 2      -1.919600845328
31 2      -1.919566163470
32 2      -4.169653524910
33 1      -4.839483059301
34 1      -3.675720874320
35 1      -4.342756932568
36 1     -12.637530309306
37 1      -4.839503660668
38 1      -8.677679270644
39 1      -4.342640098019
40 1     -12.637541656605
41 1      -8.679451562138
42 1      -4.838034731658
43 1     -12.638350428312
44 1      -4.342510682047
45 1      -3.675965412272
46 1      -4.838116349810
47 1      -7.978180108436
48 1      -7.976646851874
49 1      -3.676075919862
50 1      -8.677612385863
51 1      -7.978166888332
52 1      -7.976687528624
53 1      -8.679416192592
54 1      -3.675798183028
55 1     -12.638410900168
56 1      -4.342394381022
57 1      -4.839503476305
58 1      -3.675757811755
59 1      -4.342684866437
60 1     -12.637576469532
61 1      -4.839514560405
62 1      -8.677618801268
63 1      -4.342674400857
64 1     -12.637547121662
65 1      -8.679463877760
66 1      -4.838028731908
67 1     -12.638357757460
68 1      -4.342500809974
69 1      -3.676039088547
70 1      -4.838089189931
71 1      -7.978116837067
72 1      -7.976666600961
73 1      -3.676125951079
74 1      -8.677649147557
75 1      -7.978227439017
76 1      -7.976680348070
77 1      -8.679356386773
78 1      -3.675766562611
79 1     -12.638364452198
80 1      -4.342411832570
