80
Config_type=bulk_kappa_phase Weight=1.0 Lattice="8.626088571 0.000000000 0.000000000 0.000000000 10.046484325 0.000000000 0.000000000 0.000000000 9.230168236" Energy=-679.16752560 Virial="58.80541 0.02618 -0.00361 0.02618 62.78049 0.01341 -0.00361 0.01341 56.07502" pbc="T T T" Properties=species:S:1:pos:R:3:forces:R:3
Ga	      1.35845      1.55066      8.19085         0.012288     -0.002652      0.002037
Ga	      3.06148      4.06228      8.19085         0.001368     -0.006789      0.003137
Ga	      5.66957      0.90457      7.36618        -0.002084      0.015982     -0.007583
Ga	      7.37644      3.41619      7.36618         0.008169      0.011032     -0.007480
Ga	      4.63221      3.39997      5.50482         0.004269      0.013082     -0.020430
Ga	      1.45050      3.44607      5.62516        -0.009189     -0.006010      0.001822
Ga	      2.96942      0.93444      5.62516         0.006351     -0.005897     -0.000008
Ga	      8.41381      0.88835      5.50482        -0.004695      0.006726     -0.007648
Ga	      1.35650      1.60698      2.75108        -0.005027     -0.011595     -0.004986
Ga	      3.06343      4.11860      2.75109         0.000007     -0.017944     -0.003917
Ga	      5.67101      0.96115      3.57565         0.000180      0.008132      0.004164
Ga	      7.37501      3.47277      3.57564        -0.014375      0.004688      0.006561
Ga	      4.10110      1.62359      0.88990        -0.005303     -0.014971     -0.020208
Ga	      5.76357      4.08880      1.00999        -0.007637      0.005474     -0.003869
Ga	      7.28245      1.57717      1.00999         0.011957      0.005878     -0.000696
Ga	      0.31882      4.13521      0.88990         0.005563     -0.009784     -0.008037
Ga	      1.35845      6.57390      8.19085         0.012244     -0.002655      0.002054
Ga	      3.06148      9.08552      8.19085         0.001363     -0.006729      0.003167
Ga	      5.66957      5.92781      7.36618        -0.002115      0.015999     -0.007586
Ga	      7.37644      8.43943      7.36618         0.008105      0.011158     -0.007527
Ga	      4.63221      8.42322      5.50482         0.004325      0.012858     -0.020463
Ga	      1.45050      8.46931      5.62516        -0.009254     -0.005948      0.001801
Ga	      2.96942      5.95769      5.62516         0.006401     -0.006100      0.000010
Ga	      8.41381      5.91159      5.50482        -0.004728      0.006813     -0.007628
Ga	      1.35650      6.63022      2.75108        -0.005041     -0.011540     -0.004965
Ga	      3.06343      9.14184      2.75109         0.000037     -0.017900     -0.003947
Ga	      5.67101      5.98439      3.57565         0.000192      0.008195      0.004169
Ga	      7.37501      8.49601      3.57564        -0.014357      0.004778      0.006576
Ga	      4.10110      6.64683      0.88990        -0.005303     -0.014975     -0.020215
Ga	      5.76357      9.11204      1.00999        -0.007667      0.005506     -0.003855
Ga	      7.28245      6.60042      1.00999         0.011981      0.005691     -0.000718
Ga	      0.31882      9.15845      0.88990         0.005594     -0.009737     -0.008060
O	      7.20141      1.75737      4.37316        -0.006578      0.013310      0.005919
O	      0.01665      0.75636      0.00696        -0.000396     -0.002894      0.012242
O	      7.24397      0.11863      6.82133        -0.007660     -0.002293      0.000682
O	      7.18328      9.93024      2.11469        -0.003797     -0.010715      0.002102
O	      5.84460      4.26900      4.37315         0.005505      0.014704      0.005356
O	      7.30553      3.29259      9.21589         0.002122      0.005881     -0.003607
O	      5.80204      2.63025      6.82133         0.003956     -0.001821      0.000571
O	      5.86275      2.39538      2.11469         0.006899     -0.010414     -0.002870
O	      1.42739      1.73063      4.60095        -0.003426     -0.006549     -0.006231
O	      2.88870      0.75443      8.98846        -0.006291     -0.015306      0.006301
O	      1.55017      0.11582      6.73021         0.002852      0.011427      0.002413
O	      1.48896      9.92767      2.20649         0.007852      0.003400     -0.000357
O	      0.09047      4.26716      4.62216        -0.001462      0.001785      0.010005
O	      1.53122      3.26605      8.98847         0.006140     -0.013413      0.006736
O	      0.16534      2.40109      6.77226        -0.005171      0.006657      0.007151
O	      8.56750      2.62191      2.15726         0.004591     -0.005190      0.006126
O	      4.32946      1.75554      4.62216         0.002183      0.001341      0.009621
O	      5.74048      0.78097      9.21589        -0.006248      0.005867     -0.004211
O	      4.25458      9.93595      6.77226         0.003476      0.007347      0.003826
O	      4.47852      0.11029      2.15726        -0.003434     -0.005148      0.003529
O	      2.99254      4.24225      4.60096         0.007740     -0.006138     -0.006637
O	      4.40328      3.26798      0.00696        -0.000477     -0.002129      0.011298
O	      2.86975      2.62744      6.73022        -0.006512      0.011921     -0.002624
O	      2.93097      2.39281      2.20648        -0.003684      0.002988     -0.000201
O	      7.20141      6.78062      4.37316        -0.006566      0.013137      0.005990
O	      0.01665      5.77960      0.00696        -0.000418     -0.002839      0.012236
O	      7.24397      5.14187      6.82133        -0.007629     -0.002340      0.000687
O	      7.18328      4.90700      2.11469        -0.003784     -0.010705      0.002116
O	      5.84460      9.29224      4.37315         0.005514      0.014783      0.005305
O	      7.30553      8.31583      9.21589         0.002090      0.005932     -0.003427
O	      5.80204      7.65349      6.82133         0.003816     -0.001874      0.000519
O	      5.86275      7.41862      2.11469         0.006868     -0.010363     -0.002867
O	      1.42739      6.75387      4.60095        -0.003525     -0.006615     -0.006288
O	      2.88870      5.77767      8.98846        -0.006287     -0.015255      0.006334
O	      1.55017      5.13906      6.73021         0.002738      0.011330      0.002401
O	      1.48896      4.90443      2.20649         0.007844      0.003317     -0.000389
O	      0.09047      9.29040      4.62216        -0.001568      0.001890      0.009922
O	      1.53122      8.28929      8.98847         0.006156     -0.013406      0.006737
O	      0.16534      7.42434      6.77226        -0.005065      0.006317      0.007125
O	      8.56750      7.64515      2.15726         0.004589     -0.005144      0.006135
O	      4.32946      6.77878      4.62216         0.002308      0.001507      0.009558
O	      5.74048      5.80421      9.21589        -0.006253      0.005919     -0.004241
O	      4.25458      4.91271      6.77226         0.003517      0.007247      0.003850
O	      4.47852      5.13353      2.15726        -0.003429     -0.005099      0.003524
O	      2.99254      9.26549      4.60096         0.007837     -0.005992     -0.006659
O	      4.40328      8.29122      0.00696        -0.000466     -0.002110      0.011306
O	      2.86975      7.65068      6.73022        -0.006423      0.011968     -0.002479
O	      2.93097      7.41605      2.20648        -0.003662      0.003009     -0.000208
