ITEM: TIMESTEP
0
ITEM: NUMBER OF ATOMS
80
ITEM: BOX BOUNDS pp pp pp
0.0000000000000000e+00 8.6260885710000004e+00
0.0000000000000000e+00 1.0046484325000000e+01
0.0000000000000000e+00 9.2301682360000008e+00
ITEM: ATOMS id type x y z fx fy fz
1 2       1.358450000000       1.550660000000       8.190850000000       0.022399779948       0.081599366770       0.015377180347
2 2       3.061480000000       4.062280000000       8.190850000000      -0.022461136534       0.081466842770       0.015430143615
3 2       5.669570000000       0.904570000000       7.366180000000      -0.043784284386       0.059882884851      -0.097257231430
4 2       7.376440000000       3.416190000000       7.366180000000       0.043801795266       0.059891890402      -0.097230363252
5 2       4.632210000000       3.399970000000       5.504820000000       0.054659587131       0.006877947390       0.192154488818
6 2       1.450500000000       3.446070000000       5.625160000000       0.026144763024      -0.234312549711       0.161030076973
7 2       2.969420000000       0.934440000000       5.625160000000      -0.025980059696      -0.234046919373       0.160950974234
8 2       8.413810000000       0.888350000000       5.504820000000      -0.054693765377       0.006795555785       0.192205581438
9 2       1.356500000000       1.606980000000       2.751080000000      -0.042470939351      -0.060917337491      -0.095231879001
10 2       3.063430000000       4.118600000000       2.751090000000       0.042521068420      -0.060895386431      -0.095274297335
11 2       5.671010000000       0.961150000000       3.575650000000       0.021911755955      -0.080143218049       0.018427058639
12 2       7.375010000000       3.472770000000       3.575640000000      -0.022020015071      -0.080234188874       0.018528269532
13 2       4.101100000000       1.623590000000       0.889900000000      -0.055464302744      -0.006336389478       0.190120936188
14 2       5.763570000000       4.088800000000       1.009990000000       0.023625816431       0.234507214029       0.158202263430
15 2       7.282450000000       1.577170000000       1.009990000000      -0.023681859992       0.234686702403       0.158173793856
16 2       0.318820000000       4.135210000000       0.889900000000       0.055526900270      -0.006305449093       0.190228173524
17 2       1.358450000000       6.573900000000       8.190850000000       0.022392395352       0.081587897431       0.015386168801
18 2       3.061480000000       9.085520000000       8.190850000000      -0.022481427884       0.081511921708       0.015466179538
19 2       5.669570000000       5.927810000000       7.366180000000      -0.043807300781       0.059896673250      -0.097261848650
20 2       7.376440000000       8.439430000000       7.366180000000       0.043736798990       0.059999724888      -0.097269489575
21 2       4.632210000000       8.423220000000       5.504820000000       0.054697803630       0.006711534248       0.192163851946
22 2       1.450500000000       8.469310000000       5.625160000000       0.026067158542      -0.234296701429       0.161033996418
23 2       2.969420000000       5.957690000000       5.625160000000      -0.025981570321      -0.234189564508       0.160953423234
24 2       8.413810000000       5.911590000000       5.504820000000      -0.054734125630       0.006859829113       0.192176874887
25 2       1.356500000000       6.630220000000       2.751080000000      -0.042477067932      -0.060869514290      -0.095214738388
26 2       3.063430000000       9.141840000000       2.751090000000       0.042536391221      -0.060873281188      -0.095308848147
27 2       5.671010000000       5.984390000000       3.575650000000       0.021926044278      -0.080087816131       0.018439108688
28 2       7.375010000000       8.496010000000       3.575640000000      -0.022004433190      -0.080151302551       0.018542185219
29 2       4.101100000000       6.646830000000       0.889900000000      -0.055459325819      -0.006348735300       0.190122228592
30 2       5.763570000000       9.112040000000       1.009990000000       0.023590517406       0.234558331331       0.158197115701
31 2       7.282450000000       6.600420000000       1.009990000000      -0.023616598700       0.234505865184       0.158189241800
32 2       0.318820000000       9.158450000000       0.889900000000       0.055554946564      -0.006250652350       0.190222315130
33 1       7.201410000000       1.757370000000       4.373160000000       0.062452627560      -0.041197361497       0.044167002368
34 1       0.016650000000       0.756360000000       0.006960000000       0.011338747437      -0.086697195905      -0.013636917187
35 1       7.243970000000       0.118630000000       6.821330000000      -0.078269286853      -0.003405854316      -0.020359660716
36 1       7.183280000000       9.930240000000       2.114690000000       0.118123866108       0.098344897967      -0.158318281419
37 1       5.844600000000       4.269000000000       4.373150000000      -0.062323538819      -0.041498829195       0.044268703139
38 1       7.305530000000       3.292590000000       9.215890000000      -0.114132536644      -0.178408321920       0.045531485855
39 1       5.802040000000       2.630250000000       6.821330000000       0.078272317545      -0.003341209610      -0.020364233733
40 1       5.862750000000       2.395380000000       2.114690000000      -0.118134722664       0.098337137574      -0.158218812105
41 1       1.427390000000       1.730630000000       4.600950000000       0.112786359371       0.178125877320       0.042944451409
42 1       2.888700000000       0.754430000000       8.988460000000       0.061890150005       0.041092310031       0.045306979364
43 1       1.550170000000       0.115820000000       6.730210000000      -0.117300093042      -0.098781354980      -0.157884060771
44 1       1.488960000000       9.927670000000       2.206490000000       0.077366834295       0.004339897098      -0.021001987202
45 1       0.090470000000       4.267160000000       4.622160000000      -0.013323875971       0.085699620505      -0.015334116528
46 1       1.531220000000       3.266050000000       8.988470000000      -0.061733475326       0.041142160034       0.045191813532
47 1       0.165340000000       2.401090000000       6.772260000000      -0.062804120062       0.024453636083      -0.167859767384
48 1       8.567500000000       2.621910000000       2.157260000000       0.060858718422      -0.024874057409      -0.166528168719
49 1       4.329460000000       1.755540000000       4.622160000000       0.013160275419       0.085680670386      -0.015228104289
50 1       5.740480000000       0.780970000000       9.215890000000       0.114151836556      -0.178399835249       0.045520523970
51 1       4.254580000000       9.935950000000       6.772260000000       0.062878837139       0.024473197616      -0.167843408991
52 1       4.478520000000       0.110290000000       2.157260000000      -0.060922896171      -0.024915450716      -0.166535250102
53 1       2.992540000000       4.242250000000       4.600960000000      -0.112794492542       0.178056516014       0.042832863217
54 1       4.403280000000       3.267980000000       0.006960000000      -0.011344959713      -0.086646422388      -0.013638922696
55 1       2.869750000000       2.627440000000       6.730220000000       0.117214620061      -0.098755844484      -0.157933714619
56 1       2.930970000000       2.392810000000       2.206480000000      -0.077419616475       0.004388661978      -0.020879779068
57 1       7.201410000000       6.780620000000       4.373160000000       0.062454672640      -0.041368335924       0.044230541719
58 1       0.016650000000       5.779600000000       0.006960000000       0.011312973514      -0.086615658764      -0.013648178725
59 1       7.243970000000       5.141870000000       6.821330000000      -0.078242620273      -0.003323118960      -0.020397812338
60 1       7.183280000000       4.907000000000       2.114690000000       0.118125948771       0.098341535425      -0.158282135956
61 1       5.844600000000       9.292240000000       4.373150000000      -0.062333003531      -0.041421545168       0.044227217802
62 1       7.305530000000       8.315830000000       9.215890000000      -0.114132796060      -0.178325513544       0.045502774173
63 1       5.802040000000       7.653490000000       6.821330000000       0.078262686424      -0.003308446549      -0.020375450662
64 1       5.862750000000       7.418620000000       2.114690000000      -0.118168053100       0.098384346172      -0.158222489242
65 1       1.427390000000       6.753870000000       4.600950000000       0.112785655891       0.178142638477       0.042964625351
66 1       2.888700000000       5.777670000000       8.988460000000       0.061879783590       0.041149807619       0.045328084474
67 1       1.550170000000       5.139060000000       6.730210000000      -0.117315905157      -0.098727123686      -0.157896162066
68 1       1.488960000000       4.904430000000       2.206490000000       0.077368131779       0.004285488239      -0.021018468927
69 1       0.090470000000       9.290400000000       4.622160000000      -0.013306777131       0.085743338149      -0.015317371434
70 1       1.531220000000       8.289290000000       8.988470000000      -0.061729149580       0.041153931899       0.045196877227
71 1       0.165340000000       7.424340000000       6.772260000000      -0.062731943036       0.024365887001      -0.167871595954
72 1       8.567500000000       7.645150000000       2.157260000000       0.060857335255      -0.024866011214      -0.166555439107
73 1       4.329460000000       6.778780000000       4.622160000000       0.013198663539       0.085794288565      -0.015217428925
74 1       5.740480000000       5.804210000000       9.215890000000       0.114142208460      -0.178345205291       0.045499787484
75 1       4.254580000000       4.912710000000       6.772260000000       0.062858561458       0.024463283316      -0.167825846348
76 1       4.478520000000       5.133530000000       2.157260000000      -0.060905071695      -0.024883799178      -0.166553446230
77 1       2.992540000000       9.265490000000       4.600960000000      -0.112788319007       0.178039399751       0.042816760417
78 1       4.403280000000       8.291220000000       0.006960000000      -0.011344448431      -0.086627666473      -0.013640948203
79 1       2.869750000000       7.650680000000       6.730220000000       0.117199470117      -0.098749090643      -0.157934869917
80 1       2.930970000000       7.416050000000       2.206480000000      -0.077414889094       0.004403550541      -0.020880596711
