ITEM: TIMESTEP
0
ITEM: NUMBER OF ATOMS
80
ITEM: BOX BOUNDS pp pp pp
0.0000000000000000e+00 9.5050540009999995e+00
0.0000000000000000e+00 9.5050540009999995e+00
0.0000000000000000e+00 9.5050540009999995e+00
ITEM: ATOMS id type c_pe_atom
1 2      -6.682822426872
2 2      -6.466337816488
3 2      -6.466318166042
4 2      -6.466378861182
5 2      -6.466318166042
6 2      -6.466374346268
7 2      -6.466378861182
8 2      -6.682822426872
9 2      -6.682869161272
10 2      -6.682822426872
11 2      -6.466374346268
12 2      -6.466378861182
13 2      -6.466337816488
14 2      -6.466374346268
15 2      -6.466337816488
16 2      -6.466318166042
17 2      -6.682775692046
18 2      -6.466365360402
19 2      -6.466404797024
20 2      -6.466324315345
21 2      -6.466404797024
22 2      -6.466348616671
23 2      -6.466324315345
24 2      -6.682775692046
25 2      -6.682728956979
26 2      -6.682775692046
27 2      -6.466348616671
28 2      -6.466324315345
29 2      -6.466365360402
30 2      -6.466348616671
31 2      -6.466365360402
32 2      -6.466404797024
33 1      -5.543494871410
34 1      -5.543568417914
35 1      -5.543442915121
36 1      -5.543555458047
37 1      -5.543465554494
38 1      -5.543485977848
39 1      -5.543442915121
40 1      -5.543465554494
41 1      -5.543485977848
42 1      -5.543522495677
43 1      -5.543442915121
44 1      -5.543494871410
45 1      -5.543541067547
46 1      -5.543465554494
47 1      -5.543568417914
48 1      -5.543555458047
49 1      -5.543522495677
50 1      -5.543541067547
51 1      -5.543522495677
52 1      -5.543568417914
53 1      -5.543494871410
54 1      -5.543541067547
55 1      -5.543555458047
56 1      -5.543485977848
57 1      -5.543493059083
58 1      -5.543540765171
59 1      -5.543525927258
60 1      -5.543483730329
61 1      -5.543522725049
62 1      -5.543431955648
63 1      -5.543525927258
64 1      -5.543522725049
65 1      -5.543431955648
66 1      -5.543516342232
67 1      -5.543525927258
68 1      -5.543493059083
69 1      -5.543517208082
70 1      -5.543522725049
71 1      -5.543540765171
72 1      -5.543483730329
73 1      -5.543516342232
74 1      -5.543517208082
75 1      -5.543516342232
76 1      -5.543540765171
77 1      -5.543493059083
78 1      -5.543517208082
79 1      -5.543483730329
80 1      -5.543431955648
