ITEM: TIMESTEP
0
ITEM: NUMBER OF ATOMS
20
ITEM: BOX BOUNDS xy xz yz pp pp pp
-1.3819208892570001e+00 1.2385684430654001e+01 0.0000000000000000e+00
0.0000000000000000e+00 3.0672066079999998e+00 -1.3819208892570001e+00
0.0000000000000000e+00 5.6783709774180000e+00 0.0000000000000000e+00
ITEM: ATOMS id type c_pe_atom
1 2      -5.115818479113
2 2      -5.115955345316
3 2      -8.461323144244
4 2      -8.461340195921
5 2      -5.115895057329
6 2      -5.115808205166
7 2      -8.461383144918
8 2      -8.461320772543
9 1      -4.247947509324
10 1      -4.247861005054
11 1      -7.732777664694
12 1      -7.732704213976
13 1      -4.279386265754
14 1      -4.279518565800
15 1      -4.247861023940
16 1      -4.247864458421
17 1      -7.732727061579
18 1      -7.732813787506
19 1      -4.279508594040
20 1      -4.279406484955
