ITEM: TIMESTEP
0
ITEM: NUMBER OF ATOMS
20
ITEM: BOX BOUNDS xy xz yz pp pp pp
-1.3819208892570001e+00 1.2385684430654001e+01 0.0000000000000000e+00
0.0000000000000000e+00 3.0672066079999998e+00 -1.3819208892570001e+00
0.0000000000000000e+00 5.6783709774180000e+00 0.0000000000000000e+00
ITEM: ATOMS id type x y z fx fy fz
1 2       1.529842616974       1.533600000000       1.784768166287       0.012097369447       0.000032272889       0.071631561865
2 2       3.281072686473       0.000000000000       3.893607041469      -0.012013529387      -0.000032273524      -0.071669163236
3 2       0.016516431153       0.000000000000       4.513085447507      -0.008620512068      -0.000051055350      -0.035351532553
4 2       4.794398872295       1.533600000000       1.165289760249       0.008714439216       0.000051056338       0.035312833720
5 2       7.722691283014       0.000000000000       1.784763432910       0.011991809839      -0.000032276043       0.071717872707
6 2       9.473921352514       1.533600000000       3.893602308093      -0.012095136430       0.000032272956      -0.071647140353
7 2       6.209365097193       1.533600000000       4.513080714131      -0.008687179869       0.000051056410      -0.035222718089
8 2      10.987247538335       0.000000000000       1.165285026872       0.008622160134      -0.000051055371       0.035358214868
9 1       5.793692181231       0.000000000000       1.459315074149      -0.023057901828      -0.000062348663      -0.044337908595
10 1      -0.982776877784       1.533600000000       4.219060133607       0.023168693232       0.000062377969       0.044315041112
11 1       1.368432553019       0.000000000000       3.200047451889      -0.032893063281      -0.000019080681      -0.014546461886
12 1       3.442485115068       1.533600000000       2.478318039465       0.032837416165       0.000019052399       0.014708811657
13 1       2.919331882719       1.533600000000       5.060727615574       0.009149132878       0.000031348826       0.038071822194
14 1       1.891583420728       0.000000000000       0.617647592181      -0.009129759066      -0.000031351505      -0.038151063697
15 1      11.986540847272       1.533600000000       1.459310340773      -0.023166664403       0.000062377969      -0.044314039694
16 1       5.210071788256       0.000000000000       4.219055400231       0.023056909321      -0.000062347685       0.044353138865
17 1       7.561278854420       1.533600000000       3.200052434915      -0.032844046305       0.000019052459      -0.014657818785
18 1       9.635331416469       0.000000000000       2.478323022491       0.032900564353      -0.000019081199       0.014557031873
19 1       9.112180548760       0.000000000000       5.060722882198       0.009118223921      -0.000031352541       0.038156209536
20 1       8.084429722129       1.533600000000       0.617652575208      -0.009148925868       0.000031354346      -0.038284691508
