ITEM: TIMESTEP
0
ITEM: NUMBER OF ATOMS
20
ITEM: BOX BOUNDS xy xz yz pp pp pp
-1.3819208892570001e+00 1.2385684430654001e+01 0.0000000000000000e+00
0.0000000000000000e+00 3.0672066079999998e+00 -1.3819208892570001e+00
0.0000000000000000e+00 5.6783709774180000e+00 0.0000000000000000e+00
ITEM: ATOMS id type v_vir_xx v_vir_yy v_vir_zz v_vir_xy v_vir_xz v_vir_yz
1 2      -1.652013072479      -0.742323685432      -3.905977027988      -0.000002279728       0.286208545484      -0.000006527457
2 2      -1.651844971139      -0.742290507506      -3.905836616326      -0.000002281384       0.286197578721      -0.000006528107
3 2      -3.283051547175      -2.976010580940      -1.522745440361       0.000022080031       0.060882592444       0.000005711699
4 2      -3.283010788324      -2.975989672234      -1.522757635673       0.000022081440       0.060904812075       0.000005709816
5 2      -1.651871664656      -0.742337142373      -3.905996139024       0.000002280074       0.286228255570       0.000006530441
6 2      -1.652026512473      -0.742330802214      -3.905998211015       0.000002279758       0.286216000756       0.000006527504
7 2      -3.283019326596      -2.976000173447      -1.522695894839      -0.000022081439       0.060926789756      -0.000005709737
8 2      -3.283061899985      -2.976019261240      -1.522754987459      -0.000022079976       0.060882919516      -0.000005711628
9 1       1.422174570320       0.103163432429      -0.098111325248       0.000030882797       0.451356198528       0.000010124873
10 1       1.422145777353       0.103189758687      -0.098096850307       0.000030856625       0.451334398575       0.000010097217
11 1       1.665929624673       1.199060883454       2.781100638939       0.000009271331      -0.171993609590       0.000002411221
12 1       1.665865986750       1.199051760258       2.781054049445       0.000009244116      -0.171958784307       0.000002384357
13 1       0.634906325406       1.330884842992       1.643592073294       0.000005501339      -0.562258750340      -0.000006607712
14 1       0.634897678658       1.330859723623       1.643614180082       0.000005503048      -0.562266730301      -0.000006609625
15 1       1.422148035576       0.103190240954      -0.098098190463      -0.000030856624       0.451337804692      -0.000010097230
16 1       1.422194897199       0.103182599381      -0.098103455950      -0.000030883883       0.451368401989      -0.000010124409
17 1       1.665871485998       1.199049655571       2.781084524549      -0.000009244116      -0.171966569636      -0.000002384373
18 1       1.665926965247       1.199053848750       2.781103348851      -0.000009271054      -0.172002369221      -0.000002410895
19 1       0.634921793206       1.330875642594       1.643632815015      -0.000005501797      -0.562271885351       0.000006609040
20 1       0.634923299642       1.330863622089       1.643690229856      -0.000005502159      -0.562225866471       0.000006610070
