20
Config_type=bulk_beta_phase Weight=1.0 Lattice="12.034429703 0.000000000 -2.928767751 0.000000000 3.067206608 0.000000000 0.000000000 0.000000000 5.844108341" Energy=-170.62077740 Virial="4.05479 -0.00000 0.07320 -0.00000 4.29495 -0.00000 0.07320 -0.00000 4.16133" pbc="T T T" Properties=species:S:1:pos:R:3:forces:R:3
Ga	      1.90849      1.53360      1.37240         0.022456      0.000036     -0.023574
Ga	      4.10872      0.00000      3.00733        -0.022343     -0.000033      0.023507
Ga	      1.08323      0.00000      4.38119         0.017963     -0.000055      0.005322
Ga	      4.93398      1.53360     -0.00146        -0.017870      0.000061     -0.005390
Ga	      7.92571      0.00000     -0.09199         0.022326     -0.000035     -0.023449
Ga	     10.12594      1.53360      1.54294        -0.022459      0.000037      0.023568
Ga	      7.10045      1.53360      2.91680         0.017932      0.000060      0.005468
Ga	     10.95120      0.00000     -1.46585        -0.017970     -0.000056     -0.005310
O	      5.97446      0.00000      0.04793        -0.009036     -0.000067     -0.022531
O	      0.04275      1.53360      4.33180         0.009201      0.000066      0.022480
O	      2.08632      0.00000      2.78571         0.000137     -0.000022     -0.008631
O	      3.93089      1.53360      1.59401        -0.000184      0.000019      0.008840
O	      4.03322      1.53360      4.22689        -0.010075      0.000032      0.006080
O	      1.98399      0.00000      0.15284         0.010059     -0.000034     -0.006210
O	     11.99168      1.53360     -1.41646        -0.009201      0.000063     -0.022475
O	      6.05997      0.00000      2.86741         0.009077     -0.000068      0.022550
O	      8.10354      1.53360      1.32133         0.000166      0.000019     -0.008756
O	      9.94811      0.00000      0.12963        -0.000118     -0.000020      0.008632
O	     10.05044      0.00000      2.76250        -0.010061     -0.000037      0.006221
O	      8.00121      1.53360     -1.31154         0.010000      0.000034     -0.006342
