ITEM: TIMESTEP
0
ITEM: NUMBER OF ATOMS
80
ITEM: BOX BOUNDS pp pp pp
0.0000000000000000e+00 9.2980132199999996e+00
0.0000000000000000e+00 9.2980132199999996e+00
0.0000000000000000e+00 9.2980132199999996e+00
ITEM: ATOMS id type c_pe_atom
1 2      -5.285210363581
2 2      -5.000160597247
3 2      -5.000114830234
4 2      -5.000197623290
5 2      -5.000114830234
6 2      -5.000195882966
7 2      -5.000197623290
8 2      -5.285210363581
9 2      -5.285274663686
10 2      -5.285210363581
11 2      -5.000195882966
12 2      -5.000197623290
13 2      -5.000160597247
14 2      -5.000195882966
15 2      -5.000160597247
16 2      -5.000114830234
17 2      -5.285146061732
18 2      -5.000136759827
19 2      -5.000151254916
20 2      -5.000099734052
21 2      -5.000151254916
22 2      -5.000070202144
23 2      -5.000099734052
24 2      -5.285146061732
25 2      -5.285081760604
26 2      -5.285146061732
27 2      -5.000070202144
28 2      -5.000099734052
29 2      -5.000136759827
30 2      -5.000070202144
31 2      -5.000136759827
32 2      -5.000151254916
33 1      -6.503993787659
34 1      -6.504041311254
35 1      -6.503941327160
36 1      -6.504015165026
37 1      -6.503940327664
38 1      -6.503916563996
39 1      -6.503941327160
40 1      -6.503940327664
41 1      -6.503916563996
42 1      -6.503961669856
43 1      -6.503941327160
44 1      -6.503993787659
45 1      -6.504011743642
46 1      -6.503940327664
47 1      -6.504041311254
48 1      -6.504015165026
49 1      -6.503961669856
50 1      -6.504011743642
51 1      -6.503961669856
52 1      -6.504041311254
53 1      -6.503993787659
54 1      -6.504011743642
55 1      -6.504015165026
56 1      -6.503916563996
57 1      -6.503979680955
58 1      -6.504017028025
59 1      -6.504033268441
60 1      -6.503995777752
61 1      -6.504022089205
62 1      -6.504009504688
63 1      -6.504033268441
64 1      -6.504022089205
65 1      -6.504009504688
66 1      -6.504060324401
67 1      -6.504033268441
68 1      -6.503979680955
69 1      -6.503998070974
70 1      -6.504022089205
71 1      -6.504017028025
72 1      -6.503995777752
73 1      -6.504060324401
74 1      -6.503998070974
75 1      -6.504060324401
76 1      -6.504017028025
77 1      -6.503979680955
78 1      -6.503998070974
79 1      -6.503995777752
80 1      -6.504009504688
