ITEM: TIMESTEP
0
ITEM: NUMBER OF ATOMS
80
ITEM: BOX BOUNDS pp pp pp
0.0000000000000000e+00 9.2980132199999996e+00
0.0000000000000000e+00 9.2980132199999996e+00
0.0000000000000000e+00 9.2980132199999996e+00
ITEM: ATOMS id type x y z fx fy fz
1 2       6.973510000000       2.324500000000       2.324500000000       0.000016555970       0.000099609971       0.000109003660
2 2       6.973510000000       4.319430000000       4.649010000000      -0.000000269811       0.002025389757      -0.000051177548
3 2       0.000000000000       6.973510000000       0.329580000000      -0.000035040634      -0.000003462823      -0.002129280681
4 2       0.000000000000       2.324500000000       4.319430000000      -0.000049550409       0.000074805912       0.002017617155
5 2       0.329580000000       0.000000000000       6.973510000000      -0.002129280681      -0.000035040634      -0.000003462823
6 2       0.329580000000       4.649010000000       2.324500000000      -0.002111297866      -0.000065697225       0.000071605674
7 2       2.324500000000       4.319430000000       0.000000000000       0.000074805912       0.002017617155      -0.000049550409
8 2       2.324500000000       6.973510000000       2.324500000000       0.000109003660       0.000016555970       0.000099609971
9 2       2.324500000000       2.324500000000       2.324500000000       0.000040204129       0.000040204129       0.000040204129
10 2       2.324500000000       2.324500000000       6.973510000000       0.000099609971       0.000109003660       0.000016555970
11 2       2.324500000000       0.329580000000       4.649010000000       0.000071605674      -0.002111297866      -0.000065697225
12 2       4.319430000000       0.000000000000       2.324500000000       0.002017617155      -0.000049550409       0.000074805912
13 2       4.319430000000       4.649010000000       6.973510000000       0.002025389757      -0.000051177548      -0.000000269811
14 2       4.649010000000       2.324500000000       0.329580000000      -0.000065697225       0.000071605674      -0.002111297866
15 2       4.649010000000       6.973510000000       4.319430000000      -0.000051177548      -0.000000269811       0.002025389757
16 2       6.973510000000       0.329580000000       0.000000000000      -0.000003462823      -0.002129280681      -0.000035040634
17 2       2.324500000000       6.973510000000       6.973510000000       0.000065277341       0.000001092507       0.000026166185
18 2       2.324500000000       8.968430000000       0.000000000000       0.000054664574       0.002100976862      -0.000012472642
19 2       4.649010000000       2.324500000000       4.978590000000      -0.000028611962       0.000057849670      -0.002094626300
20 2       4.649010000000       6.973510000000       8.968430000000      -0.000043122993       0.000013474069       0.002108738692
21 2       4.978590000000       4.649010000000       2.324500000000      -0.002094626300      -0.000028611962       0.000057849670
22 2       4.978590000000       0.000000000000       6.973510000000      -0.002112608451      -0.000026988222       0.000016665558
23 2       6.973510000000       8.968430000000       4.649010000000       0.000013474069       0.002108738692      -0.000043122993
24 2       6.973510000000       2.324500000000       6.973510000000       0.000026166185       0.000065277341       0.000001092507
25 2       6.973510000000       6.973510000000       6.973510000000       0.000007161486       0.000007161486       0.000007161486
26 2       6.973510000000       6.973510000000       2.324500000000       0.000001092507       0.000026166185       0.000065277341
27 2       6.973510000000       4.978590000000       0.000000000000       0.000016665558      -0.002112608451      -0.000026988222
28 2       8.968430000000       4.649010000000       6.973510000000       0.002108738692      -0.000043122993       0.000013474069
29 2       8.968430000000       0.000000000000       2.324500000000       0.002100976862      -0.000012472642       0.000054664574
30 2       0.000000000000       6.973510000000       4.978590000000      -0.000026988222       0.000016665558      -0.002112608451
31 2       0.000000000000       2.324500000000       8.968430000000      -0.000012472642       0.000054664574       0.002100976862
32 2       2.324500000000       4.978590000000       4.649010000000       0.000057849670      -0.002094626300      -0.000028611962
33 1       8.218520000000       5.668970000000       1.465670000000       0.009501710894      -0.010755881192      -0.023819390091
34 1       8.218520000000       3.629050000000       3.183330000000       0.009475593290       0.010685561152       0.023865158060
35 1       8.278050000000       1.465670000000       1.079490000000       0.010775868954      -0.023813154202      -0.009467171781
36 1       8.278050000000       3.183330000000       5.728500000000       0.010766783440       0.023858590714      -0.009501272920
37 1       1.019960000000       3.183330000000       1.079490000000      -0.010721285351       0.023863654541      -0.009437511445
38 1       1.019960000000       1.465670000000       5.728500000000      -0.010733445990      -0.023828974891      -0.009498734158
39 1       1.079490000000       8.278050000000       1.465670000000      -0.009467171781       0.010775868954      -0.023813154202
40 1       1.079490000000       1.019960000000       3.183330000000      -0.009437511445      -0.010721285351       0.023863654541
41 1       1.465670000000       5.728500000000       1.019960000000      -0.023828974891      -0.009498734158      -0.010733445990
42 1       1.465670000000       3.569520000000       3.629050000000      -0.023840700575       0.009370771602       0.010671130440
43 1       1.465670000000       1.079490000000       8.278050000000      -0.023813154202      -0.009467171781       0.010775868954
44 1       1.465670000000       8.218520000000       5.668970000000      -0.023819390091       0.009501710894      -0.010755881192
45 1       3.183330000000       3.569520000000       5.668970000000       0.023875062005       0.009369781677      -0.010720207383
46 1       3.183330000000       1.079490000000       1.019960000000       0.023863654541      -0.009437511445      -0.010721285351
47 1       3.183330000000       8.218520000000       3.629050000000       0.023865158060       0.009475593290       0.010685561152
48 1       3.183330000000       5.728500000000       8.278050000000       0.023858590714      -0.009501272920       0.010766783440
49 1       3.569520000000       3.629050000000       1.465670000000       0.009370771602       0.010671130440      -0.023840700575
50 1       3.569520000000       5.668970000000       3.183330000000       0.009369781677      -0.010720207383       0.023875062005
51 1       3.629050000000       1.465670000000       3.569520000000       0.010671130440      -0.023840700575       0.009370771602
52 1       3.629050000000       3.183330000000       8.218520000000       0.010685561152       0.023865158060       0.009475593290
53 1       5.668970000000       1.465670000000       8.218520000000      -0.010755881192      -0.023819390091       0.009501710894
54 1       5.668970000000       3.183330000000       3.569520000000      -0.010720207383       0.023875062005       0.009369781677
55 1       5.728500000000       8.278050000000       3.183330000000      -0.009501272920       0.010766783440       0.023858590714
56 1       5.728500000000       1.019960000000       1.465670000000      -0.009498734158      -0.010733445990      -0.023828974891
57 1       3.569520000000       1.019960000000       6.114680000000       0.009381550097      -0.010714949270      -0.023832034770
58 1       3.569520000000       8.278050000000       7.832340000000       0.009390315553       0.010759292283       0.023837506055
59 1       3.629050000000       6.114680000000       5.728500000000       0.010698176211      -0.023838918061      -0.009495524717
60 1       3.629050000000       7.832340000000       1.079490000000       0.010697016097       0.023849442509      -0.009440520812
61 1       5.668970000000       7.832340000000       5.728500000000      -0.010758250689       0.023849105696      -0.009500743715
62 1       5.668970000000       6.114680000000       1.079490000000      -0.010756330944      -0.023827824066      -0.009460420170
63 1       5.728500000000       3.629050000000       6.114680000000      -0.009495524717       0.010698176211      -0.023838918061
64 1       5.728500000000       5.668970000000       7.832340000000      -0.009500743715      -0.010758250689       0.023849105696
65 1       6.114680000000       1.079490000000       5.668970000000      -0.023827824066      -0.009460420170      -0.010756330944
66 1       6.114680000000       8.218520000000       8.278050000000      -0.023805981302       0.009516016851       0.010783954426
67 1       6.114680000000       5.728500000000       3.629050000000      -0.023838918061      -0.009495524717       0.010698176211
68 1       6.114680000000       3.569520000000       1.019960000000      -0.023832034770       0.009381550097      -0.010714949270
69 1       7.832340000000       8.218520000000       1.019960000000       0.023832328323       0.009492582137      -0.010740376113
70 1       7.832340000000       5.728500000000       5.668970000000       0.023849105696      -0.009500743715      -0.010758250689
71 1       7.832340000000       3.569520000000       8.278050000000       0.023837506055       0.009390315553       0.010759292283
72 1       7.832340000000       1.079490000000       3.629050000000       0.023849442509      -0.009440520812       0.010697016097
73 1       8.218520000000       8.278050000000       6.114680000000       0.009516016851       0.010783954426      -0.023805981302
74 1       8.218520000000       1.019960000000       7.832340000000       0.009492582137      -0.010740376113       0.023832328323
75 1       8.278050000000       6.114680000000       8.218520000000       0.010783954426      -0.023805981302       0.009516016851
76 1       8.278050000000       7.832340000000       3.569520000000       0.010759292283       0.023837506055       0.009390315553
77 1       1.019960000000       6.114680000000       3.569520000000      -0.010714949270      -0.023832034770       0.009381550097
78 1       1.019960000000       7.832340000000       8.218520000000      -0.010740376113       0.023832328323       0.009492582137
79 1       1.079490000000       3.629050000000       7.832340000000      -0.009440520812       0.010697016097       0.023849442509
80 1       1.079490000000       5.668970000000       6.114680000000      -0.009460420170      -0.010756330944      -0.023827824066
