80
Config_type=bulk_delta_phase Weight=1.0 Lattice="9.279191331 0.000000000 0.000000000 0.000000000 9.279191331 0.000000000 0.000000000 0.000000000 9.279191331" Energy=-679.25611760 Virial="41.79295 -0.00008 -0.00014 -0.00008 41.79299 -0.00018 -0.00014 -0.00018 41.79309" pbc="T T T" Properties=species:S:1:pos:R:3:forces:R:3
Ga	      6.95939      2.31980      2.31980         0.000196     -0.000145     -0.000096
Ga	      6.95939      4.31114      4.63960         0.000151      0.009740     -0.000095
Ga	      0.00000      6.95939      0.32846         0.000014      0.000168     -0.009849
Ga	      0.00000      2.31980      4.31114         0.000012     -0.000124      0.009718
Ga	      0.32846      0.00000      6.95939        -0.009841      0.000020      0.000164
Ga	      0.32846      4.63960      2.31980        -0.009871     -0.000101     -0.000093
Ga	      2.31980      4.31114      0.00000        -0.000124      0.009733     -0.000000
Ga	      2.31980      6.95939      2.31980        -0.000102      0.000192     -0.000133
Ga	      2.31980      2.31980      2.31980        -0.000132     -0.000129     -0.000115
Ga	      2.31980      2.31980      6.95939        -0.000144     -0.000093      0.000184
Ga	      2.31980      0.32846      4.63960        -0.000110     -0.009871     -0.000102
Ga	      4.31114      0.00000      2.31980         0.009719      0.000005     -0.000113
Ga	      4.31114      4.63960      6.95939         0.009741     -0.000082      0.000143
Ga	      4.63960      2.31980      0.32846        -0.000101     -0.000098     -0.009874
Ga	      4.63960      6.95939      4.31114        -0.000100      0.000145      0.009749
Ga	      6.95939      0.32846      0.00000         0.000173     -0.009855      0.000018
Ga	      2.31980      6.95939      6.95939        -0.000151      0.000192      0.000165
Ga	      2.31980      8.95073      0.00000        -0.000130      0.009882      0.000014
Ga	      4.63960      2.31980      4.96805        -0.000113     -0.000140     -0.009797
Ga	      4.63960      6.95939      8.95073        -0.000105      0.000189      0.009903
Ga	      4.96805      4.63960      2.31980        -0.009788     -0.000097     -0.000134
Ga	      4.96805      0.00000      6.95939        -0.009768     -0.000005      0.000168
Ga	      6.95939      8.95073      4.63960         0.000187      0.009905     -0.000114
Ga	      6.95939      2.31980      6.95939         0.000174     -0.000152      0.000190
Ga	      6.95939      6.95939      6.95939         0.000154      0.000154      0.000158
Ga	      6.95939      6.95939      2.31980         0.000198      0.000165     -0.000153
Ga	      6.95939      4.96805      0.00000         0.000173     -0.009774      0.000001
Ga	      8.95073      4.63960      6.95939         0.009900     -0.000106      0.000191
Ga	      8.95073      0.00000      2.31980         0.009883      0.000004     -0.000120
Ga	      0.00000      6.95939      4.96805         0.000006      0.000164     -0.009769
Ga	      0.00000      2.31980      8.95073        -0.000000     -0.000121      0.009877
Ga	      2.31980      4.96805      4.63960        -0.000140     -0.009797     -0.000100
O	      8.20010      5.65546      1.46225         0.002393     -0.003015      0.003478
O	      8.20010      3.62373      3.17734         0.002243      0.003059     -0.003630
O	      8.26333      1.46225      1.07909         0.002913      0.003517     -0.002394
O	      8.26333      3.17734      5.71869         0.002891     -0.003649     -0.002344
O	      1.01586      3.17734      1.07909        -0.002903     -0.003292     -0.002353
O	      1.01586      1.46225      5.71869        -0.002961      0.003476     -0.002471
O	      1.07909      8.26333      1.46225        -0.002352      0.002871      0.003456
O	      1.07909      1.01586      3.17734        -0.002341     -0.002858     -0.003292
O	      1.46225      5.71869      1.01586         0.003463     -0.002478     -0.002910
O	      1.46225      3.56050      3.62373         0.003455      0.002524      0.003046
O	      1.46225      1.07909      8.26333         0.003445     -0.002373      0.002908
O	      1.46225      8.20010      5.65546         0.003435      0.002341     -0.002995
O	      3.17734      3.56050      5.65546        -0.003589      0.002346     -0.002994
O	      3.17734      1.07909      1.01586        -0.003283     -0.002347     -0.002880
O	      3.17734      8.20010      3.62373        -0.003630      0.002233      0.003013
O	      3.17734      5.71869      8.26333        -0.003626     -0.002319      0.002893
O	      3.56050      3.62373      1.46225         0.002560      0.003094      0.003497
O	      3.56050      5.65546      3.17734         0.002377     -0.003037     -0.003673
O	      3.62373      1.46225      3.56050         0.003094      0.003491      0.002514
O	      3.62373      3.17734      8.20010         0.003057     -0.003613      0.002233
O	      5.65546      1.46225      8.20010        -0.003025      0.003466      0.002343
O	      5.65546      3.17734      3.56050        -0.003007     -0.003592      0.002336
O	      5.71869      8.26333      3.17734        -0.002291      0.002934     -0.003638
O	      5.71869      1.01586      1.46225        -0.002486     -0.002915      0.003494
O	      3.56050      1.01586      6.10185         0.002394     -0.002914      0.003678
O	      3.56050      8.26333      7.81694         0.002523      0.002934     -0.003492
O	      3.62373      6.10185      5.71869         0.003068      0.003676     -0.002296
O	      3.62373      7.81694      1.07909         0.003062     -0.003474     -0.002381
O	      5.65546      7.81694      5.71869        -0.003013     -0.003444     -0.002451
O	      5.65546      6.10185      1.07909        -0.003006      0.003306     -0.002334
O	      5.71869      3.62373      6.10185        -0.002345      0.003078      0.003678
O	      5.71869      5.65546      7.81694        -0.002485     -0.003051     -0.003487
O	      6.10185      1.07909      5.65546         0.003334     -0.002387     -0.002996
O	      6.10185      8.20010      8.26333         0.003312      0.002356      0.002859
O	      6.10185      5.71869      3.62373         0.003693     -0.002389      0.003047
O	      6.10185      3.56050      1.01586         0.003640      0.002368     -0.002869
O	      7.81694      8.20010      1.01586        -0.003469      0.002329     -0.002905
O	      7.81694      5.71869      5.65546        -0.003488     -0.002460     -0.003082
O	      7.81694      3.56050      8.26333        -0.003482      0.002484      0.002944
O	      7.81694      1.07909      3.62373        -0.003505     -0.002402      0.003098
O	      8.20010      8.26333      6.10185         0.002377      0.002890      0.003313
O	      8.20010      1.01586      7.81694         0.002397     -0.002889     -0.003483
O	      8.26333      6.10185      8.20010         0.002888      0.003359      0.002383
O	      8.26333      7.81694      3.56050         0.002917     -0.003502      0.002562
O	      1.01586      6.10185      3.56050        -0.002941      0.003678      0.002352
O	      1.01586      7.81694      8.20010        -0.002908     -0.003471      0.002361
O	      1.07909      3.62373      7.81694        -0.002390      0.003044     -0.003444
O	      1.07909      5.65546      6.10185        -0.002364     -0.002952      0.003319
