ITEM: TIMESTEP
0
ITEM: NUMBER OF ATOMS
20
ITEM: BOX BOUNDS xy xz yz pp pp pp
-1.4069456134080001e+00 1.2609972478089000e+01 0.0000000000000000e+00
0.0000000000000000e+00 3.1227495840000001e+00 -1.4069456134080001e+00
0.0000000000000000e+00 5.7811986212499997e+00 0.0000000000000000e+00
ITEM: ATOMS id type c_pe_atom
1 2      -5.184863948031
2 2      -5.184859981819
3 2      -4.716511495665
4 2      -4.716501891970
5 2      -5.184864928808
6 2      -5.184865323653
7 2      -4.716506264444
8 2      -4.716510307693
9 1     -10.996634809030
10 1     -10.996627585002
11 1     -10.823089019349
12 1     -10.823086757645
13 1     -10.901065544611
14 1     -10.901068395465
15 1     -10.996626538322
16 1     -10.996624898791
17 1     -10.823089226330
18 1     -10.823080245819
19 1     -10.901063023193
20 1     -10.901070158452
