ITEM: TIMESTEP
0
ITEM: NUMBER OF ATOMS
80
ITEM: BOX BOUNDS pp pp pp
0.0000000000000000e+00 9.3733007770000007e+00
0.0000000000000000e+00 9.3733007770000007e+00
0.0000000000000000e+00 9.3733007770000007e+00
ITEM: ATOMS id type x y z fx fy fz
1 2       7.029980000000       2.343330000000       2.343330000000      -0.000007683886      -0.000039168250      -0.000055377332
2 2       7.029980000000       4.352280000000       4.686650000000      -0.000011996463       0.045100922113       0.000058828815
3 2       0.000000000000       7.029980000000       0.334370000000       0.000037091701      -0.000014801403      -0.045041490868
4 2       0.000000000000       2.343330000000       4.352280000000       0.000055691932      -0.000099263041       0.045081406233
5 2       0.334370000000       0.000000000000       7.029980000000      -0.045041490868       0.000037091701      -0.000014801403
6 2       0.334370000000       4.686650000000       2.343330000000      -0.044999742325       0.000077427422      -0.000102068993
7 2       2.343330000000       4.352280000000       0.000000000000      -0.000099263041       0.045081406233       0.000055691932
8 2       2.343330000000       7.029980000000       2.343330000000      -0.000055377332      -0.000007683886      -0.000039168250
9 2       2.343330000000       2.343330000000       2.343330000000      -0.000023273233      -0.000023273233      -0.000023273233
10 2       2.343330000000       2.343330000000       7.029980000000      -0.000039168250      -0.000055377332      -0.000007683886
11 2       2.343330000000       0.334370000000       4.686650000000      -0.000102068993      -0.044999742325       0.000077427422
12 2       4.352280000000       0.000000000000       2.343330000000       0.045081406233       0.000055691932      -0.000099263041
13 2       4.352280000000       4.686650000000       7.029980000000       0.045100922113       0.000058828815      -0.000011996463
14 2       4.686650000000       2.343330000000       0.334370000000       0.000077427422      -0.000102068993      -0.044999742325
15 2       4.686650000000       7.029980000000       4.352280000000       0.000058828815      -0.000011996463       0.045100922113
16 2       7.029980000000       0.334370000000       0.000000000000      -0.000014801403      -0.045041490868       0.000037091701
17 2       2.343330000000       7.029980000000       7.029980000000      -0.000019899680      -0.000009494967      -0.000006119152
18 2       2.343330000000       9.038940000000       0.000000000000      -0.000064519595       0.044933929014       0.000002076967
19 2       4.686650000000       2.343330000000       5.021020000000       0.000023812634      -0.000061713534      -0.044983140462
20 2       4.686650000000       7.029980000000       9.038940000000       0.000042410672      -0.000052352118       0.044953445101
21 2       5.021020000000       4.686650000000       2.343330000000      -0.044983140462       0.000023812634      -0.000061713534
22 2       5.021020000000       0.000000000000       7.029980000000      -0.045024889630       0.000020675905      -0.000049545415
23 2       7.029980000000       9.038940000000       4.686650000000      -0.000052352118       0.044953445101       0.000042410672
24 2       7.029980000000       2.343330000000       7.029980000000      -0.000006119152      -0.000019899680      -0.000009494967
25 2       7.029980000000       7.029980000000       7.029980000000       0.000008522778       0.000008522778       0.000008522778
26 2       7.029980000000       7.029980000000       2.343330000000      -0.000009494967      -0.000006119152      -0.000019899680
27 2       7.029980000000       5.021020000000       0.000000000000      -0.000049545415      -0.045024889630       0.000020675905
28 2       9.038940000000       4.686650000000       7.029980000000       0.044953445101       0.000042410672      -0.000052352118
29 2       9.038940000000       0.000000000000       2.343330000000       0.044933929014       0.000002076967      -0.000064519595
30 2       0.000000000000       7.029980000000       5.021020000000       0.000020675905      -0.000049545415      -0.045024889630
31 2       0.000000000000       2.343330000000       9.038940000000       0.000002076967      -0.000064519595       0.044933929014
32 2       2.343330000000       5.021020000000       4.686650000000      -0.000061713534      -0.044983140462       0.000023812634
33 1       8.292720000000       5.723310000000       1.479570000000      -0.084812977538       0.020832023739       0.052459770154
34 1       8.292720000000       3.649990000000       3.207080000000      -0.084846476146      -0.020864382827      -0.052428925806
35 1       8.336640000000       1.479570000000       1.080580000000      -0.020869698436       0.052439385273       0.084901594627
36 1       8.336640000000       3.207080000000       5.767230000000      -0.020861224504      -0.052426683167       0.084846004441
37 1       1.036660000000       3.207080000000       1.080580000000       0.020901843837      -0.052391738787       0.084931603144
38 1       1.036660000000       1.479570000000       5.767230000000       0.020838934885       0.052445347841       0.084816783457
39 1       1.080580000000       8.336640000000       1.479570000000       0.084901594627      -0.020869698436       0.052439385273
40 1       1.080580000000       1.036660000000       3.207080000000       0.084931603144       0.020901843837      -0.052391738787
41 1       1.479570000000       5.767230000000       1.036660000000       0.052445347841       0.084816783457       0.020838934885
42 1       1.479570000000       3.606070000000       3.649990000000       0.052453468213      -0.084816905444      -0.020851171489
43 1       1.479570000000       1.080580000000       8.336640000000       0.052439385273       0.084901594627      -0.020869698436
44 1       1.479570000000       8.292720000000       5.723310000000       0.052459770154      -0.084812977538       0.020832023739
45 1       3.207080000000       3.606070000000       5.723310000000      -0.052418003768      -0.084842639532       0.020873250417
46 1       3.207080000000       1.080580000000       1.036660000000      -0.052391738787       0.084931603144       0.020901843837
47 1       3.207080000000       8.292720000000       3.649990000000      -0.052428925806      -0.084846476146      -0.020864382827
48 1       3.207080000000       5.767230000000       8.336640000000      -0.052426683167       0.084846004441      -0.020861224504
49 1       3.606070000000       3.649990000000       1.479570000000      -0.084816905444      -0.020851171489       0.052453468213
50 1       3.606070000000       5.723310000000       3.207080000000      -0.084842639532       0.020873250417      -0.052418003768
51 1       3.649990000000       1.479570000000       3.606070000000      -0.020851171489       0.052453468213      -0.084816905444
52 1       3.649990000000       3.207080000000       8.292720000000      -0.020864382827      -0.052428925806      -0.084846476146
53 1       5.723310000000       1.479570000000       8.292720000000       0.020832023739       0.052459770154      -0.084812977538
54 1       5.723310000000       3.207080000000       3.606070000000       0.020873250417      -0.052418003768      -0.084842639532
55 1       5.767230000000       8.336640000000       3.207080000000       0.084846004441      -0.020861224504      -0.052426683167
56 1       5.767230000000       1.036660000000       1.479570000000       0.084816783457       0.020838934885       0.052445347841
57 1       3.606070000000       1.036660000000       6.166220000000      -0.084809470149       0.020840349636       0.052446942332
58 1       3.606070000000       8.336640000000       7.893740000000      -0.084806214256      -0.020829729174      -0.052519700885
59 1       3.649990000000       6.166220000000       5.767230000000      -0.020821034998       0.052452056516       0.084817237832
60 1       3.649990000000       7.893740000000       1.080580000000      -0.020851032951      -0.052489869376       0.084899580145
61 1       5.723310000000       7.893740000000       5.767230000000       0.020810203804      -0.052508014585       0.084810495188
62 1       5.723310000000       6.166220000000       1.080580000000       0.020851590353       0.052429295691       0.084898564515
63 1       5.767230000000       3.649990000000       6.166220000000       0.084817237832      -0.020821034998       0.052452056516
64 1       5.767230000000       5.723310000000       7.893740000000       0.084810495188       0.020810203804      -0.052508014585
65 1       6.166220000000       1.080580000000       5.723310000000       0.052429295691       0.084898564515       0.020851590353
66 1       6.166220000000       8.292720000000       8.336640000000       0.052470046626      -0.084809031104      -0.020821415114
67 1       6.166220000000       5.767230000000       3.649990000000       0.052452056516       0.084817237832      -0.020821034998
68 1       6.166220000000       3.606070000000       1.036660000000       0.052446942332      -0.084809470149       0.020840349636
69 1       7.893740000000       8.292720000000       1.036660000000      -0.052513818638      -0.084806561140       0.020820646210
70 1       7.893740000000       5.767230000000       5.723310000000      -0.052508014585       0.084810495188       0.020810203804
71 1       7.893740000000       3.606070000000       8.336640000000      -0.052519700885      -0.084806214256      -0.020829729174
72 1       7.893740000000       1.080580000000       3.649990000000      -0.052489869376       0.084899580145      -0.020851032951
73 1       8.292720000000       8.336640000000       6.166220000000      -0.084809031104      -0.020821415114       0.052470046626
74 1       8.292720000000       1.036660000000       7.893740000000      -0.084806561140       0.020820646210      -0.052513818638
75 1       8.336640000000       6.166220000000       8.292720000000      -0.020821415114       0.052470046626      -0.084809031104
76 1       8.336640000000       7.893740000000       3.606070000000      -0.020829729174      -0.052519700885      -0.084806214256
77 1       1.036660000000       6.166220000000       3.606070000000       0.020840349636       0.052446942332      -0.084809470149
78 1       1.036660000000       7.893740000000       8.292720000000       0.020820646210      -0.052513818638      -0.084806561140
79 1       1.080580000000       3.649990000000       7.893740000000       0.084899580145      -0.020851032951      -0.052489869376
80 1       1.080580000000       5.723310000000       6.166220000000       0.084898564515       0.020851590353       0.052429295691
