ITEM: TIMESTEP
0
ITEM: NUMBER OF ATOMS
40
ITEM: BOX BOUNDS pp pp pp
0.0000000000000000e+00 8.7669226699999996e+00
0.0000000000000000e+00 5.1052542799999996e+00
0.0000000000000000e+00 9.3808648609999992e+00
ITEM: ATOMS id type x y z fx fy fz
1 2       1.375930000000       1.578730000000       8.327740000000      -0.095322846820       0.123999893176      -0.013496982852
2 2       3.116160000000       4.131350000000       8.327740000000       0.095391391453       0.124051793759      -0.013415800310
3 2       5.772320000000       0.903260000000       7.492740000000       0.110937055522      -0.136312471763      -0.021469774824
4 2       7.486690000000       3.455890000000       7.492750000000      -0.110999328990      -0.136361611024      -0.021605720637
5 2       4.719410000000       3.458230000000       5.593710000000      -0.125727930112       0.000788278364       0.047803076882
6 2       1.471990000000       3.505860000000       5.717910000000      -0.108233304648       0.057618376214      -0.238148295451
7 2       3.020100000000       0.953230000000       5.717910000000       0.108115598878       0.057648136566      -0.238099831956
8 2       8.539600000000       0.905600000000       5.593710000000       0.125757542622       0.000802342391       0.047770680312
9 2       1.388780000000       1.648960000000       2.802170000000       0.110517896396       0.136187989556      -0.019816414023
10 2       3.103320000000       4.201580000000       2.802170000000      -0.110561239913       0.136376207201      -0.019776764694
11 2       5.758540000000       0.974540000000       3.637250000000      -0.094723364338      -0.124619944645      -0.013345994113
12 2       7.500470000000       3.527170000000       3.637250000000       0.094688427715      -0.124749684174      -0.013409039541
13 2       4.157050000000       1.647540000000       0.903560000000       0.122292095342      -0.002151200688       0.045440325168
14 2       5.855370000000       4.152030000000       1.027270000000      -0.109251335469      -0.056869581221      -0.237392815550
15 2       7.403650000000       1.599410000000       1.027260000000       0.109138268810      -0.056984670672      -0.237291101619
16 2       0.335040000000       4.200170000000       0.903560000000      -0.122225008253      -0.002097628962       0.045512306720
17 1       7.321940000000       1.777120000000       4.423210000000       0.026733152697      -0.060613266024      -0.084859207309
18 1       0.036690000000       0.775000000000       0.039070000000      -0.010308581751       0.064455929859       0.147934816667
19 1       7.354780000000       0.096580000000       6.932280000000       0.105005700201       0.002829414799      -0.037619373235
20 1       7.283400000000       4.964430000000       2.130110000000      -0.000296624022       0.202585715405       0.047915049654
21 1       5.937070000000       4.329750000000       4.423210000000      -0.026729608424      -0.060612403339      -0.084855299397
22 1       7.429870000000       3.340070000000       9.365240000000       0.051988433047       0.033441244042       0.100769007364
23 1       5.904230000000       2.649210000000       6.932280000000      -0.105001141104       0.002793283519      -0.037610596356
24 1       5.975620000000       2.411800000000       2.130120000000       0.000295150314       0.202665169063       0.047877716884
25 1       1.445370000000       1.765030000000       4.674840000000      -0.054456738309      -0.034703380970       0.101359588087
26 1       2.939180000000       0.776110000000       9.114030000000       0.027772293018       0.060353152957      -0.085294384674
27 1       1.593570000000       0.140010000000       6.821380000000      -0.005784638222      -0.200197842565       0.047643759650
28 1       1.520910000000       5.008240000000       2.241900000000      -0.107537275290      -0.003187727442      -0.037372880335
29 1       0.072450000000       4.330750000000       4.729620000000       0.010049925411      -0.064252485092       0.148962671443
30 1       1.552910000000       3.328740000000       9.114030000000      -0.027778633315       0.060339881221      -0.085278039074
31 1       0.155020000000       2.431400000000       6.883330000000       0.010086602258       0.011916956748       0.050663825558
32 1       8.720290000000       2.673410000000       2.193010000000      -0.011022748323      -0.011212479520       0.050359034806
33 1       4.419630000000       1.778130000000       4.729630000000      -0.009881341044      -0.064368691712       0.148791216558
34 1       5.829140000000       0.787450000000       9.365240000000      -0.051924695825       0.033362001108       0.100695669709
35 1       4.337060000000       4.984020000000       6.883330000000      -0.009997456215       0.011975557612       0.050692677223
36 1       4.538730000000       0.120780000000       2.193010000000       0.010986287780      -0.011196432661       0.050374256611
37 1       3.046720000000       4.317660000000       4.674840000000       0.054438593404      -0.034717564704       0.101356578972
38 1       4.455410000000       3.327620000000       0.039070000000       0.010245800428       0.064529069920       0.147920157615
39 1       2.898510000000       2.692630000000       6.821380000000       0.005792396595      -0.200128841844       0.047719819758
40 1       2.971190000000       2.455620000000       2.241900000000       0.107531228495      -0.003382484454      -0.037403919691
