ITEM: TIMESTEP
0
ITEM: NUMBER OF ATOMS
40
ITEM: BOX BOUNDS pp pp pp
0.0000000000000000e+00 8.7669226699999996e+00
0.0000000000000000e+00 5.1052542799999996e+00
0.0000000000000000e+00 9.3808648609999992e+00
ITEM: ATOMS id type c_pe_atom
1 2      -6.533488148830
2 2      -6.533545948852
3 2      -8.006865700171
4 2      -8.006866734382
5 2      -5.621151491799
6 2      -3.817001604716
7 2      -3.816981150893
8 2      -5.621207946310
9 2      -8.006304646513
10 2      -8.006260048103
11 2      -6.536425392180
12 2      -6.536413651009
13 2      -5.613971578234
14 2      -3.817767812094
15 2      -3.817800864973
16 2      -5.613955366464
17 1      -3.703628242428
18 1      -2.677778453974
19 1      -3.708234868386
20 1     -10.742400522382
21 1      -3.703636296136
22 1      -7.583533902143
23 1      -3.708333954310
24 1     -10.742425936286
25 1      -7.588287321795
26 1      -3.701523399444
27 1     -10.741016529954
28 1      -3.708984584414
29 1      -2.676025404431
30 1      -3.701431779744
31 1      -7.036552012041
32 1      -7.036179414446
33 1      -2.676134514459
34 1      -7.583686511688
35 1      -7.036529604732
36 1      -7.036123865488
37 1      -7.588316765575
38 1      -2.677871374113
39 1     -10.741020187572
40 1      -3.708815740852
