20
Config_type=bulk_beta_phase Weight=1.0 Lattice="12.252357001 0.000000000 -2.981803786 0.000000000 3.122749584 0.000000000 0.000000000 0.000000000 5.949937265" Energy=-170.55389340 Virial="-7.17729 0.00005 -0.20375 0.00005 -7.92377 -0.00034 -0.20375 -0.00034 -7.57484" pbc="T T T" Properties=species:S:1:pos:R:3:forces:R:3
Ga	      1.93666      1.56137      1.39646        -0.007103      0.000060      0.024430
Ga	      4.18952      0.00000      3.06257         0.007108     -0.000020     -0.024383
Ga	      1.09675      0.00000      4.46199        -0.031057     -0.000049     -0.008097
Ga	      5.02943      1.56137     -0.00296         0.030955      0.000098      0.008152
Ga	      8.06283      0.00000     -0.09444        -0.007021     -0.000018      0.024445
Ga	     10.31570      1.56137      1.57167         0.007038      0.000062     -0.024405
Ga	      7.22293      1.56137      2.97109        -0.031092     -0.000287     -0.008515
Ga	     11.15561      0.00000     -1.49386         0.030948     -0.000051      0.008146
O	      6.06840      0.00000      0.05200        -0.014046     -0.000066      0.011547
O	      0.05777      1.56137      4.40704         0.014189      0.000100     -0.011552
O	      2.13501      0.00000      2.84890         0.006914     -0.000005      0.007125
O	      3.99117      1.56137      1.61013        -0.006975      0.000040     -0.007074
O	      4.15506      1.56137      4.28644         0.015208      0.000063     -0.005821
O	      1.97112      0.00000      0.17259        -0.015241     -0.000028      0.005870
O	     12.19458      1.56137     -1.43891        -0.014006      0.000103      0.011586
O	      6.18395      0.00000      2.91614         0.014148     -0.000069     -0.011542
O	      8.26118      1.56137      1.35800         0.007039      0.000037      0.007071
O	     10.11735      0.00000      0.11923        -0.007021     -0.000003     -0.007071
O	     10.28124      0.00000      2.79554         0.015192     -0.000029     -0.005843
O	      8.09729      1.56137     -1.31831        -0.015177      0.000062      0.005930
