30
Config_type=bulk_alpha_phase Weight=1.0 Lattice="5.134607621 0.000000000 0.000000000 -2.567303810 4.446701062 0.000000000 0.000000000 0.000000000 13.822731296" Energy=-254.86753160 Virial="-15.48467 -0.00000 -0.00003 -0.00000 -15.48467 0.00002 -0.00003 0.00002 -13.55322" pbc="T T T" Properties=species:S:1:pos:R:3:forces:R:3
Ga	      0.00000      0.00000      1.99240        -0.000009     -0.000038     -0.007537
Ga	      0.00000      2.96447      0.31139         0.000007     -0.000080      0.007449
Ga	      2.56730      1.48223      2.61517         0.000056      0.000055      0.007502
Ga	      0.00000      2.96447      4.29619        -0.000025     -0.000043     -0.007506
Ga	      2.56730      1.48223      6.59997         0.000072      0.000082     -0.007356
Ga	      0.00000      0.00000      4.91897        -0.000010      0.000017      0.007437
Ga	      0.00000      2.96447      7.22276         0.000007     -0.000097      0.007502
Ga	      0.00000      0.00000      8.90376         0.000002     -0.000021     -0.007391
Ga	      0.00000      2.96447     11.20756         0.000004     -0.000039     -0.007577
Ga	      2.56730      1.48223      9.52654         0.000086      0.000063      0.007539
Ga	      0.00000      0.00000     11.83033        -0.000002      0.000018      0.007473
Ga	      2.56730      1.48223     13.51134         0.000066      0.000078     -0.007512
O	     -0.77791      1.34738      3.45568        -0.000445      0.000636      0.000005
O	      1.55582      0.00000      3.45568         0.000751      0.000042      0.000030
O	      1.78939      3.09932      3.45568        -0.000298     -0.000694      0.000003
O	      3.34521      0.13485      1.15189         0.000545     -0.000615      0.000135
O	      3.34522      2.82961      1.15189         0.000239      0.000762      0.000138
O	      1.01149      1.48223      1.15189        -0.000861     -0.000036      0.000093
O	      1.78940      2.82961      8.06326        -0.000536      0.000696      0.000005
O	      4.12312      1.48223      8.06326         0.000894      0.000087      0.000005
O	      1.78940      0.13485      8.06326        -0.000455     -0.000692      0.000046
O	      0.77791      1.61709      5.75948         0.000311     -0.000775     -0.000087
O	      0.77791      4.31185      5.75948         0.000499      0.000626     -0.000104
O	     -1.55582      2.96447      5.75948        -0.000820      0.000059     -0.000089
O	     -0.77791      4.31185     12.67084        -0.000461      0.000699     -0.000093
O	      1.55582      2.96447     12.67084         0.000852     -0.000005     -0.000059
O	     -0.77791      1.61709     12.67084        -0.000408     -0.000774     -0.000063
O	     -1.78939      3.09932     10.36705         0.000355     -0.000762      0.000003
O	      0.77791      1.34738     10.36705         0.000465      0.000725     -0.000001
O	      3.57879      0.00000     10.36705        -0.000881      0.000027      0.000009
