ITEM: TIMESTEP
0
ITEM: NUMBER OF ATOMS
20
ITEM: BOX BOUNDS xy xz yz pp pp pp
-1.4125066631990000e+00 1.2659814267052999e+01 0.0000000000000000e+00
0.0000000000000000e+00 3.1350924679999999e+00 -1.4125066631990000e+00
0.0000000000000000e+00 5.8040492080880002e+00 0.0000000000000000e+00
ITEM: ATOMS id type x y z fx fy fz
1 2       1.552105630035       1.567550000000       1.827854482532      -0.159458411577      -0.000050747685      -0.201105702286
2 2       3.365292274323       0.000000000000       3.976194083590       0.159453571004       0.000050747682       0.201093444750
3 2       0.007223434150       0.000000000000       4.616819869488       0.002418373305       0.000048652542      -0.058947525137
4 2       4.910184186611       1.567550000000       1.187231061274      -0.002573459962      -0.000048653795       0.058911276511
5 2       7.882009061857       0.000000000000       1.827858507355      -0.159389282375       0.000050747639      -0.201080266336
6 2       9.695207787187       1.567550000000       3.976190756650       0.159438008021      -0.000050747633       0.201095464905
7 2       6.337126865971       1.567550000000       4.616823894311       0.002499729159      -0.000048652553      -0.058933741523
8 2      11.240089983072       0.000000000000       1.187225369695      -0.002502064518       0.000048652546       0.058929747407
9 1       5.900876327894       0.000000000000       1.495496351081       0.084357736478       0.000060725523       0.051958450503
10 1      -0.983478423536       1.567550000000       4.308552215042      -0.084284018660      -0.000060724283      -0.051940952740
11 1       1.409374534367       0.000000000000       3.294476743760      -0.071954713387       0.000019884849      -0.013000484736
12 1       3.508023369991       1.567550000000       2.509571822362       0.071997637741      -0.000019884855       0.012979343753
13 1       3.056962391157       1.567550000000       5.162107370828      -0.006081346987      -0.000051746241      -0.122467574050
14 1       1.860435513202       0.000000000000       0.641941195295       0.006104432477       0.000051746277       0.122510281750
15 1      12.230791840758       1.567550000000       1.495493024141       0.084255063620      -0.000060724222       0.051937820318
16 1       5.346425008286       0.000000000000       4.308556239865      -0.084243654449       0.000060724145      -0.051932557157
17 1       7.739287682591       1.567550000000       3.294483133223      -0.072068539563      -0.000019884752      -0.013022895963
18 1       9.837929166452       0.000000000000       2.509566130783       0.072051633645       0.000019884773       0.013007866582
19 1       9.386868187617       0.000000000000       5.162101679248      -0.006042292572       0.000051746241      -0.122437014859
20 1       8.190348661426       1.567550000000       0.641947584757       0.006021598600      -0.000051746197       0.122445018310
