ITEM: TIMESTEP
0
ITEM: NUMBER OF ATOMS
160
ITEM: BOX BOUNDS pp pp pp
0.0000000000000000e+00 8.3665628919999993e+00
0.0000000000000000e+00 8.3665628919999993e+00
0.0000000000000000e+00 2.5099688678000000e+01
ITEM: ATOMS id type v_vir_xx v_vir_yy v_vir_zz v_vir_xy v_vir_xz v_vir_yz
1 2      -3.297038013035      -1.166658894547      -1.229798174511       0.002830506235      -0.202640441950      -0.120144775750
2 2      -3.548496273922      -2.645469964647      -3.167172776456      -0.279891478067       0.467809631437       0.118260817166
3 2      -2.454846004132      -3.460200255503      -2.930106773791       0.349750982671       0.484048080810      -0.014617608828
4 2      -0.948463997599      -3.027472157932      -3.024072075381       0.301158926621      -0.240650345449       0.538025370573
5 2      -3.111500275468      -1.073046029380      -2.907889697711       0.123054335166      -0.071585977498       0.072572330569
6 2      -3.243849611499      -1.246512229035      -1.799844849770       0.261281678671      -0.023195001771      -0.346635326489
7 2      -2.579409836628      -3.711304817065      -1.298246588120      -0.642645290805       0.045188474139      -0.049153154758
8 2      -0.763154665847      -4.039319491007      -3.054933548147       0.092716437116      -0.241148554399      -0.324744592623
9 2      -3.935495089995      -2.722852027191      -1.230985079187      -0.596412963049       0.089072026833      -0.330781720803
10 2      -2.649693088051      -3.500224132015      -3.007411847056       0.347514956177       0.118095688265      -0.283263235653
11 2      -4.128293748099      -1.118962137630      -3.252465178897      -0.027497687847       0.320471944925      -0.164306274160
12 2      -0.910167419989      -3.034262425623      -2.988344108047       0.001122793814       0.497750722659       0.479160188056
13 2      -1.402453798477      -3.267252051615      -2.007016191247      -0.345934483043       0.626389263280      -0.151159052204
14 2      -3.035701585037      -1.061798635806      -2.987168564206       0.139411316584      -0.073447623395       0.038889291265
15 2      -3.557804055019      -2.448603130659      -2.910715759818       0.378928354949       0.173807309274       0.396989059731
16 2      -0.482084877813      -3.883241498068      -3.289443909832      -0.101276407858      -0.281437312323      -0.073762399446
17 2      -3.505836379811      -2.798193849806      -1.356039383831       0.548857227676       0.017373471653       0.134506526184
18 2      -1.204768855907      -3.287682649341      -1.767173465258       0.098092924020      -0.265838155460      -0.310769002132
19 2      -2.609142610399      -3.703578650039      -1.299840941172      -0.626088331498       0.097276931144      -0.029057943001
20 2      -3.895846874152      -0.559894500932      -3.283777812810       0.175381423020       0.251027544063       0.554131816864
21 2      -2.162913847138      -2.274094115099       0.134579104707      -0.555566206039       0.129895830381       0.135954863582
22 2      -1.646749903135      -1.754944646880      -3.570267177969      -0.562794059580      -0.353189473208       0.365661290929
23 2      -3.296434221176      -0.296794731964      -0.222024948427      -0.189412165585       0.376154196369       0.506868573739
24 2      -2.339013288231      -3.109461526598      -2.756279414623      -0.715234801544       1.245774850967       1.148842913635
25 2      -3.195756827174      -1.033082803637      -1.592118694354      -0.364309315706       0.377801739664       0.995242802149
26 2      -1.957148294759       0.276792237997      -1.750060096331       0.307232379020       0.208304963061      -0.654440325719
27 2      -1.758891991722       0.689582080005      -2.100127456556      -0.376849071672       0.273502109149       0.241457878140
28 2      -2.880173207887      -2.666121863422      -2.901744745990       0.738131488714       1.216909466904      -1.285854629126
29 2       0.144251328327      -1.797120193606      -1.626795916689       0.200792000782       0.470564058739      -0.453880858704
30 2      -0.296420871935      -3.284593751770      -0.100308414596       0.743995905557       0.191952412877       0.567982116793
31 2      -1.429195256931      -1.788393108186      -3.550481359284       0.350028918811       0.725340925315       0.235751138176
32 2      -1.401881618579      -1.381289635137      -3.681965156343       0.423889345564      -0.234732059998       0.224231694595
33 2      -2.713169446983      -2.770256644944      -3.283492110108       0.686349982902      -0.059388941821       0.994209338338
34 2      -2.908972963900      -2.623390203423      -3.580016749156      -0.703881699133       0.138828961162       1.185444037639
35 2      -1.820578058847      -1.415134273308      -3.099411468560       0.351293225972       0.446462453341       0.706903388753
36 2      -3.065719432902      -1.419457497527      -1.644297944691       1.090837395179      -0.331750541918       0.150237858436
37 2      -1.947076446373      -2.299835069458      -0.062918087861      -0.047348948517       0.748910090356       0.262405725721
38 2      -2.445554575441      -2.820348731100      -3.017765111253       0.577222912520      -0.528624363330       0.093083580679
39 2      -1.850914034568       0.554882665112      -2.088315157661       0.276028266521      -0.003275786694      -0.604223844876
40 2       0.377020388950      -2.068270057835      -2.207119499416      -0.286966503870      -0.284321713743      -0.068877443315
41 2      -2.819833645946      -2.588879557114      -2.106902293074       0.090488883107      -1.321146965507       1.299296395807
42 2      -1.503814490638      -2.859903083417      -0.640676793203       0.329572988018      -0.937989344114      -0.464887808332
43 2      -1.477866702915      -1.664501662975      -3.651850385850      -0.356150544757       0.714218961276      -0.061420321687
44 2      -2.565875867093      -3.054863471450      -3.182350700347       0.665118579840      -0.634700863572       0.180103241858
45 2      -2.949622070898      -2.548455132167      -3.250252420559       0.629507121509       0.274038420188      -0.721382577088
46 2      -2.813102396030      -2.684025618690      -2.835297648304      -0.501015631364       0.051914864074      -0.687041493494
47 2      -2.537344108753      -2.858645222887      -2.963559174960      -0.652244733679      -0.745565394039      -0.007759445274
48 2      -1.419369405840      -2.906991105846      -0.966534037186      -0.285703132984      -0.993487321584       0.618100450086
49 2      -2.509574166298      -2.896681151322      -3.146066553878      -0.697046715174      -0.800631826895       0.102260660971
50 2       0.170886920126      -1.956342015643      -2.020858344626      -0.269930538210       0.625144440621       0.066752742456
51 2       0.408215600225      -1.943800330674      -1.995126352271       0.220112795019      -0.345258173575      -0.072834142836
52 2      -2.779089542659      -1.463839250872      -1.383244555090       0.228953909143       0.431682079902      -0.723443123439
53 2      -1.762654465228      -2.868303697522      -1.366229391346      -0.886357820058       0.158293705152      -0.558054117892
54 2      -2.777303817277      -1.478491846528      -1.330439398466       0.258063373472       0.496262372534      -0.693851982252
55 2      -1.544578327031      -1.390321136175      -3.037403908790      -0.334645644203       0.174858622147      -0.252098922973
56 2      -2.677073473883      -2.671405284943      -2.032765504700      -0.099486564867      -1.251034556649      -1.452822299018
57 2      -0.933435698525      -3.175768206273      -1.561860884248      -0.364183422403       1.054218694068       0.204695221967
58 2      -1.851433786406      -1.477564216569      -3.598272951992       0.428982372977       0.400586699544       0.619188132694
59 2      -1.499073955889      -1.386241489228      -3.094273444381      -0.371179839061       0.339927100935      -0.207977030098
60 2      -1.721242140875       0.622788191894      -2.173664849036      -0.364727540478       0.404153978098       0.159743380025
61 2       0.141114130508      -1.559209043807      -1.445748602462      -0.007892400137       0.114031596802       1.013586296098
62 2      -1.400897065048      -0.101491756853      -1.434138463265      -0.010269319783       1.046563194745       0.163382353826
63 2      -0.073584858316      -1.415440027505      -1.334986202384       0.120846682002       0.095607948866      -1.158661819967
64 2      -1.441068054168       0.049451787933      -1.420728277658       0.011103073056       1.072731077458       0.010822538643
65 1       2.406853222540       1.960232648409       1.768857683201       0.347532689643       0.132064100766       0.052384760447
66 1       1.962815995889       1.974700939483       2.452982436817       0.308678179709       0.257372023718       0.265790284821
67 1      -0.042850924069       1.269429359018       1.956717884434      -0.300326425042      -0.222449356697      -0.580295968760
68 1       0.976981489691       1.246342625056      -0.349398862849       0.364757395761      -0.050722229117       0.027239382580
69 1       1.580619719789       0.396101257898       1.496789807543      -0.121986138711       0.372418311358      -0.179326278683
70 1       1.435276873565       0.169401620771       1.256754248313      -0.140106184764       0.380392265332      -0.239670704633
71 1       1.889118047404       1.925276211996       1.329411127448      -0.467251463394      -0.172731732349       0.319650799103
72 1       0.888238894090       1.219773081688       0.922082128022      -0.095015290979       0.114590639296       0.016951567386
73 1       2.055628948864       1.839336530122       1.491659758210       0.429204921903      -0.479866318789      -0.332298113411
74 1       0.671033327857       1.279451679644       1.038238498759       0.237718178506       0.169497378844      -0.061771250222
75 1       1.630560680539       0.425143850616       1.538035254350      -0.131064542774       0.492670868723      -0.153857829568
76 1       2.019364657861       1.797209419279       1.694633546230      -0.606503129530       0.578545585221      -0.701650226624
77 1       0.737411924773       1.458816861106       0.391182167706      -0.071528897780      -0.256227614092       0.012760017575
78 1      -0.344858142628       1.383013889005       1.466414117348       0.076671096204      -0.242597520895       0.437881943320
79 1       1.571283551698       0.457238297732       1.592531861310       0.148950728713       0.431414175734       0.077619137911
80 1       2.035497612273       1.928756184826       2.050197653593       0.629343169702       0.644365028161       0.731769316792
81 1       2.052943810420       1.862950291199       1.510385241194       0.424843787103      -0.484923602305      -0.334862631366
82 1       2.148070603586       1.927070746302       1.620703256975       0.262376655618      -0.353849465967      -0.278984391980
83 1       2.303154157627       2.012625552306       1.868691524666      -0.355476109990       0.130190384371      -0.330565455358
84 1       1.983226562397       1.772180082000       2.698818228102      -0.068950635753       0.325240305032      -0.512695007891
85 1       0.536655659945       1.166727944144       0.670904963150      -0.009135906787      -0.406341538653       0.043645444512
86 1       1.043730517804       1.268829184342      -0.244756821348       0.367196275586      -0.025680746964       0.002189691715
87 1       2.160304311900       2.240663004063       2.248426553324      -0.317242866607       0.326957444668      -0.232147263525
88 1       1.970929004403       1.808969715543       2.697966627446      -0.065629544805       0.344825857195      -0.604762757440
89 1       1.656865123065       2.090755364043       2.536061739088       0.019858087141       0.378618518731       0.607291611321
90 1       2.436462736161       1.935336089199       1.768451809087       0.348770191551       0.125546314103       0.056478812297
91 1       0.753599413899       1.180327572519       0.931674653069      -0.119978644280       0.136357290935       0.000080109691
92 1       1.833759818233       1.934825537067       2.125262499811      -0.186181869801      -0.389371076740       0.429107045340
93 1      -0.444979681961       1.356156646843       1.436758094797       0.125774244847      -0.123546175756       0.385401388377
94 1       1.210359218963       1.275532757243       0.175056960570      -0.348017875718      -0.323548274981      -0.197710346657
95 1       2.028258079243       1.937456955148       2.005253870896       0.648523421897       0.651472923957       0.754630820065
96 1       1.584163217267       0.586822360574       1.245249507882       0.114753035449       0.158586540738       0.037843201794
97 1       0.538005539377       1.507630436619       1.130563482991       0.142420222710       0.237654532249       0.157801927098
98 1       1.821463543989       1.881456351874       1.787240902330       0.488307660219       0.637571912360       0.585248992304
99 1       2.138864516556       1.701290510894       1.574864103055       0.536984873257      -0.759327525410      -0.431627004841
100 1       1.152703026002       0.002619116389       1.960859906927      -0.192384550929      -0.567420663526      -0.334511369026
101 1       2.037415710949       2.252463533689       1.917148429170      -0.323554414751       0.312532791178      -0.500651156122
102 1       1.214067784469       0.640757354739       0.533791740080      -0.309107965713       0.233931872109      -0.053140934040
103 1       0.962979716677       0.582058611012       1.085319909989      -0.007379718262      -0.159921786567      -0.063334685057
104 1       2.003550535440       2.198199583708       1.881267612284      -0.247343229941      -0.245572280408       0.104846989223
105 1       1.374148138900       0.623363304902       1.087171409863       0.171271972035      -0.054576865814       0.135454910012
106 1       1.674982629340       2.278916468574       1.889499418952       0.334588599333      -0.092630803033      -0.332060906283
107 1       1.322153185549       1.334600201686       0.274388461883      -0.340354099223       0.089301364560      -0.409223049584
108 1       0.481277842361       1.427589376271       1.936513149977      -0.058722177727       0.115969161581      -0.507532778868
109 1       2.090306233164       1.717382449762       2.608298790998       0.024833929650      -0.416194941785       0.282196589525
110 1       1.947824275138       1.836042348536       2.371351768208      -0.244818077067      -0.131657800478       0.065454557104
111 1       1.256455061605       1.336489592222       0.333692847176       0.315040415533       0.095312965030       0.353515933811
112 1       0.372530141857       1.672693802460       1.547967228851       0.180960325900       0.168363322098       0.439428228015
113 1       1.231709199872       0.591721069921       0.911985083247      -0.070241661285       0.202409293742      -0.403980773528
114 1       1.253680163727       1.289121477240      -0.018298774233       0.258799678261       0.345602327493      -0.196606418127
115 1       1.979410557121       1.937225107592       2.521833278266      -0.110366809339       0.550693440292      -0.326928698192
116 1       2.010452982586       2.009420255792       1.491498212146      -0.544281917682       0.349752146057      -0.233710549636
117 1       1.753557492558       1.872566836559       1.842081070053       0.575592607153      -0.403359655288      -0.435765996588
118 1       2.044322121780       2.218226770960       1.773078308827       0.170622817853      -0.241829168859      -0.405839882384
119 1       1.144383545217      -0.127652160983       1.882494372866       0.252194496496       0.600113806829      -0.370455903167
120 1       1.464102325196       0.726017779378       0.661791492201      -0.065521599062       0.119771118262      -0.411117996120
121 1       2.105092943801       2.122172159503       1.662724762300       0.521469642985       0.334484869333       0.326158457777
122 1       2.212658124130       1.729540005804       2.615606042297      -0.040339916443       0.648565687817       0.357738750178
123 1       0.434734163336       1.577779809027       1.035601071311      -0.090161599135      -0.011589093186       0.209296916423
124 1       0.544179663599       1.762659191201       1.981315483909      -0.069039726503       0.020268244130       0.320276686009
125 1       1.716774968744       2.050783577778       1.613530228343      -0.585073174817      -0.673444521975       0.575689773933
126 1       1.453580343771      -0.255140611851       1.508140802033       0.147704983939      -0.407431870188       0.167481114066
127 1       1.981939475337       2.063339492964       2.603799351118       0.264182109296       0.251733869938       0.213478001760
128 1       2.118720672636       1.977465771378       1.843110775967       0.456463801441       0.258113760252       0.119747987402
129 1       1.355409719705      -0.482212711134       1.545400303137      -0.148142829379       0.461167405806       0.125059289920
130 1       1.802427043641       2.041057468490       2.481463769638       0.125604103688       0.215500314461       0.578492186877
131 1       0.496387527204       1.543979518541       0.736177594444       0.042488795406      -0.479510860773      -0.054063290200
132 1       2.250368198658       2.163904815014       2.119938005335       0.258878250560      -0.131992435050      -0.020549205090
133 1       1.880490956839       2.121301338031       2.192918178184      -0.453515863059       0.468343263884      -0.240137938102
134 1       1.774600769835       2.114822798792       2.062607865930      -0.602922692265       0.521400276440      -0.866618768773
135 1       1.801503756642       1.912371538398       2.241269308461      -0.228813297282      -0.386614864167       0.446531763805
136 1       1.459224466691       0.699573900077       0.557383643781      -0.104533449838       0.173854716419       0.492383367767
137 1       0.086408190276       1.416542765881       1.307546993506       0.128068354833      -0.049984252212      -0.209489661871
138 1       2.076313792292       2.059438097992       1.946515848815       0.310321145780      -0.378488630941      -0.361866600363
139 1       2.191756551083       2.095162175299       2.194895765330      -0.288574507755       0.304621694139      -0.054059285889
140 1       1.519863024480       0.182456790820       1.361839684266      -0.155869956839       0.323219839146      -0.208870638567
141 1       1.209108595292       1.216693439410      -0.128933360579      -0.376347018240      -0.278644920685      -0.252037347975
142 1       1.640659802998       2.098138137146       1.386464711518      -0.472801802254      -0.278450791930       0.474805187286
143 1       1.638178191584       0.332572276158       1.006051984616       0.175673327218       0.276999768874       0.122940336148
144 1       2.088605419954       2.026713504728       2.313954488242       0.333573141207       0.526540005536       0.502032852375
145 1       0.499687756101       1.668023599891       2.151662830904       0.117493320608       0.006730481259      -0.274615751914
146 1       0.357251320123       1.112570204991       1.128282746381       0.052285483238       0.128103206294      -0.035190477488
147 1       2.256940215217       2.255301534585       2.322986012079      -0.342711203490       0.329852618222      -0.251350086529
148 1       0.285942195501       1.448612771065       1.311111616103      -0.061865687686       0.248802672703      -0.181584700246
149 1      -0.351002486920       1.436056417161       1.311884067022      -0.192605324168      -0.132517003383      -0.446449352576
150 1       1.795868750921       2.006111742975       2.592278803988       0.134552280572      -0.439216278087      -0.225433105704
151 1       2.454366770371       2.104355103430       1.893293762321      -0.195257889428       0.074421791461      -0.068055189463
152 1       2.061702376323       2.146226762235       1.754583816151      -0.540411270904       0.597095130850      -0.418580617962
153 1       1.939555415188       1.810001092704       2.329664873742       0.268952251705       0.221385259215       0.287072125416
154 1       1.495058656743       0.824744677363       0.431328347356       0.167229187600       0.162357102876       0.471670392781
155 1       1.332124508825       1.062585208020      -0.278247601988      -0.292393446765      -0.054151095728       0.113405393652
156 1       1.708733728802       1.898716150548       1.510618786167      -0.463978142958      -0.254013197410       0.582521140982
157 1       2.051805241636       1.956058352641       2.208604090420      -0.192959207969      -0.347125581370       0.382805459376
158 1       0.775872632235       1.453478335297       0.480159953144      -0.103918131283      -0.387800228324       0.054316716334
159 1       1.410002642823       0.808418620207       0.617578103537       0.167985740179       0.148001936684       0.148700693714
160 1       1.699286428427       0.526413483361       1.912696316721       0.110037770797       0.261490881671       0.237039880798
