ITEM: TIMESTEP
0
ITEM: NUMBER OF ATOMS
30
ITEM: BOX BOUNDS xy xz yz pp pp pp
-2.5369215170000001e+00 5.0738430330000002e+00 -2.5369215170000001e+00
0.0000000000000000e+00 4.3940773809999998e+00 0.0000000000000000e+00
0.0000000000000000e+00 1.3659148676999999e+01 0.0000000000000000e+00
ITEM: ATOMS id type x y z fx fy fz
1 2       0.000000000000       0.000000000000       1.968820000000       0.000056996161      -0.000070832573      -0.112929917012
2 2       0.000000000000       2.929380000000       0.307710000000       0.000045269297       0.000072586139       0.112879940955
3 2       2.536920000000       1.464690000000       2.584220000000       0.000083370047       0.000004938295       0.113059423774
4 2       0.000000000000       2.929380000000       4.245350000000       0.000007951660       0.000064146215      -0.112901146845
5 2       2.536920000000       1.464690000000       6.521870000000      -0.000009256793       0.000007800638      -0.112949006550
6 2       0.000000000000       0.000000000000       4.860750000000      -0.000025263146      -0.000060750871       0.113066245290
7 2       0.000000000000       2.929380000000       7.137280000000      -0.000001184117       0.000062835436       0.112918178783
8 2       0.000000000000       0.000000000000       8.798390000000      -0.000001855734      -0.000062029249      -0.112957349932
9 2       0.000000000000       2.929380000000      11.074920000000      -0.000031825778       0.000080827207      -0.112964260885
10 2       2.536920000000       1.464690000000       9.413800000000       0.000011007604      -0.000013712216       0.112938773151
11 2       0.000000000000       0.000000000000      11.690330000000      -0.000023568721      -0.000055929950       0.112958673064
12 2       2.536920000000       1.464690000000      13.351440000000       0.000005259931       0.000024336825      -0.112931544952
13 1      -0.768700000000       1.331430000000       3.414790000000      -0.059188329229       0.102394154692      -0.000069881661
14 1       1.537410000000       0.000000000000       3.414790000000       0.118212274145      -0.000039743976      -0.000023957175
15 1       1.768220000000       3.062640000000       3.414790000000      -0.059120003612      -0.102380924107      -0.000034776024
16 1       3.305630000000       0.133260000000       1.138260000000       0.059075571548      -0.102444974983       0.000020082824
17 1       3.305630000000       2.796120000000       1.138260000000       0.059005895516       0.102487103363       0.000092458000
18 1       0.999520000000       1.464690000000       1.138260000000      -0.118261026687      -0.000035893777       0.000050099514
19 1       1.768220000000       2.796120000000       7.967830000000      -0.059094160749       0.102465348395       0.000115925751
20 1       4.074330000000       1.464690000000       7.967830000000       0.118196316892      -0.000038085104       0.000112532457
21 1       1.768220000000       0.133260000000       7.967830000000      -0.059163172230      -0.102426989294       0.000113511368
22 1       0.768700000000       1.597950000000       5.691320000000       0.059095054264      -0.102408812996      -0.000110442969
23 1       0.768700000000       4.260820000000       5.691320000000       0.059209566602       0.102281699763      -0.000147895732
24 1      -1.537410000000       2.929380000000       5.691320000000      -0.118205951290       0.000126963548      -0.000146943928
25 1      -0.768700000000       4.260820000000      12.520890000000      -0.059223581954       0.102284577035      -0.000088110863
26 1       1.537400000000       2.929380000000      12.520890000000       0.118285480268       0.000086001873      -0.000066227711
27 1      -0.768710000000       1.597950000000      12.520890000000      -0.058989238097      -0.102388677996      -0.000073940966
28 1       3.305620000000       3.062640000000      10.244360000000       0.059194371683      -0.102347593610       0.000046815085
29 1       0.768700000000       1.331430000000      10.244360000000       0.059160283524       0.102387707340       0.000002600485
30 1       3.536440000000       0.000000000000      10.244360000000      -0.118306251005      -0.000056076062       0.000020142705
