ITEM: TIMESTEP
0
ITEM: NUMBER OF ATOMS
80
ITEM: BOX BOUNDS pp pp pp
0.0000000000000000e+00 9.2980132199999996e+00
0.0000000000000000e+00 9.2980132199999996e+00
0.0000000000000000e+00 9.2980132199999996e+00
ITEM: ATOMS id type x y z fx fy fz
1 2       6.973510000000       2.324500000000       2.324500000000       0.000001963979       0.000148253845       0.000147239887
2 2       6.973510000000       4.319430000000       4.649010000000      -0.000022265660      -0.047479694679      -0.000046322167
3 2       0.000000000000       6.973510000000       0.329580000000      -0.000040249196      -0.000012100351       0.047367413881
4 2       0.000000000000       2.324500000000       4.319430000000      -0.000046437796       0.000072306955      -0.047464729159
5 2       0.329580000000       0.000000000000       6.973510000000       0.047367413881      -0.000040249196      -0.000012100351
6 2       0.329580000000       4.649010000000       2.324500000000       0.047376245899      -0.000052509398       0.000082470161
7 2       2.324500000000       4.319430000000       0.000000000000       0.000072306955      -0.047464729159      -0.000046437796
8 2       2.324500000000       6.973510000000       2.324500000000       0.000147239887       0.000001963979       0.000148253845
9 2       2.324500000000       2.324500000000       2.324500000000       0.000123860779       0.000123860779       0.000123860779
10 2       2.324500000000       2.324500000000       6.973510000000       0.000148253845       0.000147239887       0.000001963979
11 2       2.324500000000       0.329580000000       4.649010000000       0.000082470161       0.047376245899      -0.000052509398
12 2       4.319430000000       0.000000000000       2.324500000000      -0.047464729159      -0.000046437796       0.000072306955
13 2       4.319430000000       4.649010000000       6.973510000000      -0.047479694679      -0.000046322167      -0.000022265660
14 2       4.649010000000       2.324500000000       0.329580000000      -0.000052509398       0.000082470161       0.047376245899
15 2       4.649010000000       6.973510000000       4.319430000000      -0.000046322167      -0.000022265660      -0.047479694679
16 2       6.973510000000       0.329580000000       0.000000000000      -0.000012100351       0.047367413881      -0.000040249196
17 2       2.324500000000       6.973510000000       6.973510000000       0.000120169542      -0.000003066176      -0.000006756947
18 2       2.324500000000       8.968430000000       0.000000000000       0.000047183641      -0.047390697443      -0.000014333914
19 2       4.649010000000       2.324500000000       4.978590000000      -0.000020408698       0.000037019025       0.047396019940
20 2       4.649010000000       6.973510000000       8.968430000000      -0.000026593767       0.000023186956      -0.047405665064
21 2       4.978590000000       4.649010000000       2.324500000000       0.047396019940      -0.000020408698       0.000037019025
22 2       4.978590000000       0.000000000000       6.973510000000       0.047387186910      -0.000020520094       0.000013021711
23 2       6.973510000000       8.968430000000       4.649010000000       0.000023186956      -0.047405665064      -0.000026593767
24 2       6.973510000000       2.324500000000       6.973510000000      -0.000006756947       0.000120169542      -0.000003066176
25 2       6.973510000000       6.973510000000       6.973510000000       0.000002977830       0.000002977830       0.000002977830
26 2       6.973510000000       6.973510000000       2.324500000000      -0.000003066176      -0.000006756947       0.000120169542
27 2       6.973510000000       4.978590000000       0.000000000000       0.000013021711       0.047387186910      -0.000020520094
28 2       8.968430000000       4.649010000000       6.973510000000      -0.047405665064      -0.000026593767       0.000023186956
29 2       8.968430000000       0.000000000000       2.324500000000      -0.047390697443      -0.000014333914       0.000047183641
30 2       0.000000000000       6.973510000000       4.978590000000      -0.000020520094       0.000013021711       0.047387186910
31 2       0.000000000000       2.324500000000       8.968430000000      -0.000014333914       0.000047183641      -0.047390697443
32 2       2.324500000000       4.978590000000       4.649010000000       0.000037019025       0.047396019940      -0.000020408698
33 1       8.218520000000       5.668970000000       1.465670000000      -0.163223404279       0.074102177404       0.034113640144
34 1       8.218520000000       3.629050000000       3.183330000000      -0.163286321281      -0.074179618970      -0.034107211416
35 1       8.278050000000       1.465670000000       1.079490000000      -0.074086556487       0.034106172945       0.163255467570
36 1       8.278050000000       3.183330000000       5.728500000000      -0.074077954923      -0.034083132100       0.163231362986
37 1       1.019960000000       3.183330000000       1.079490000000       0.074131230622      -0.034068604931       0.163276433252
38 1       1.019960000000       1.465670000000       5.728500000000       0.074126970064       0.034087634661       0.163240632542
39 1       1.079490000000       8.278050000000       1.465670000000       0.163255467570      -0.074086556487       0.034106172945
40 1       1.079490000000       1.019960000000       3.183330000000       0.163276433252       0.074131230622      -0.034068604931
41 1       1.465670000000       5.728500000000       1.019960000000       0.034087634661       0.163240632542       0.074126970064
42 1       1.465670000000       3.569520000000       3.629050000000       0.034139039356      -0.163414376288      -0.074243877958
43 1       1.465670000000       1.079490000000       8.278050000000       0.034106172945       0.163255467570      -0.074086556487
44 1       1.465670000000       8.218520000000       5.668970000000       0.034113640144      -0.163223404279       0.074102177404
45 1       3.183330000000       3.569520000000       5.668970000000      -0.034103394266      -0.163363154917       0.074162096505
46 1       3.183330000000       1.079490000000       1.019960000000      -0.034068604931       0.163276433252       0.074131230622
47 1       3.183330000000       8.218520000000       3.629050000000      -0.034107211416      -0.163286321281      -0.074179618970
48 1       3.183330000000       5.728500000000       8.278050000000      -0.034083132100       0.163231362986      -0.074077954923
49 1       3.569520000000       3.629050000000       1.465670000000      -0.163414376288      -0.074243877958       0.034139039356
50 1       3.569520000000       5.668970000000       3.183330000000      -0.163363154917       0.074162096505      -0.034103394266
51 1       3.629050000000       1.465670000000       3.569520000000      -0.074243877958       0.034139039356      -0.163414376288
52 1       3.629050000000       3.183330000000       8.218520000000      -0.074179618970      -0.034107211416      -0.163286321281
53 1       5.668970000000       1.465670000000       8.218520000000       0.074102177404       0.034113640144      -0.163223404279
54 1       5.668970000000       3.183330000000       3.569520000000       0.074162096505      -0.034103394266      -0.163363154917
55 1       5.728500000000       8.278050000000       3.183330000000       0.163231362986      -0.074077954923      -0.034083132100
56 1       5.728500000000       1.019960000000       1.465670000000       0.163240632542       0.074126970064       0.034087634661
57 1       3.569520000000       1.019960000000       6.114680000000      -0.163371266714       0.074171614401       0.034129331445
58 1       3.569520000000       8.278050000000       7.832340000000      -0.163351090516      -0.074129200426      -0.034118294701
59 1       3.629050000000       6.114680000000       5.728500000000      -0.074178070368       0.034125759339       0.163291774777
60 1       3.629050000000       7.832340000000       1.079490000000      -0.074188932798      -0.034100196342       0.163316668681
61 1       5.668970000000       7.832340000000       5.728500000000       0.074102891407      -0.034083582367       0.163229645101
62 1       5.668970000000       6.114680000000       1.079490000000       0.074104891754       0.034113156864       0.163264656695
63 1       5.728500000000       3.629050000000       6.114680000000       0.163291774777      -0.074178070368       0.034125759339
64 1       5.728500000000       5.668970000000       7.832340000000       0.163229645101       0.074102891407      -0.034083582367
65 1       6.114680000000       1.079490000000       5.668970000000       0.034113156864       0.163264656695       0.074104891754
66 1       6.114680000000       8.218520000000       8.278050000000       0.034135072833      -0.163222247538      -0.074062679057
67 1       6.114680000000       5.728500000000       3.629050000000       0.034125759339       0.163291774777      -0.074178070368
68 1       6.114680000000       3.569520000000       1.019960000000       0.034129331445      -0.163371266714       0.074171614401
69 1       7.832340000000       8.218520000000       1.019960000000      -0.034090971193      -0.163232306761       0.074113954823
70 1       7.832340000000       5.728500000000       5.668970000000      -0.034083582367       0.163229645101       0.074102891407
71 1       7.832340000000       3.569520000000       8.278050000000      -0.034118294701      -0.163351090516      -0.074129200426
72 1       7.832340000000       1.079490000000       3.629050000000      -0.034100196342       0.163316668681      -0.074188932798
73 1       8.218520000000       8.278050000000       6.114680000000      -0.163222247538      -0.074062679057       0.034135072833
74 1       8.218520000000       1.019960000000       7.832340000000      -0.163232306761       0.074113954823      -0.034090971193
75 1       8.278050000000       6.114680000000       8.218520000000      -0.074062679057       0.034135072833      -0.163222247538
76 1       8.278050000000       7.832340000000       3.569520000000      -0.074129200426      -0.034118294701      -0.163351090516
77 1       1.019960000000       6.114680000000       3.569520000000       0.074171614401       0.034129331445      -0.163371266714
78 1       1.019960000000       7.832340000000       8.218520000000       0.074113954823      -0.034090971193      -0.163232306761
79 1       1.079490000000       3.629050000000       7.832340000000       0.163316668681      -0.074188932798      -0.034100196342
80 1       1.079490000000       5.668970000000       6.114680000000       0.163264656695       0.074104891754       0.034113156864
