80
Config_type=bulk_delta_phase Weight=1.0 Lattice="9.298013220 0.000000000 0.000000000 0.000000000 9.298013220 0.000000000 0.000000000 0.000000000 9.298013220" Energy=-679.50435460 Virial="35.40166 0.00008 -0.00003 0.00008 35.40171 0.00001 -0.00003 0.00001 35.40176" pbc="T T T" Properties=species:S:1:pos:R:3:forces:R:3
Ga	      6.97351      2.32450      2.32450        -0.000002      0.000126      0.000129
Ga	      6.97351      4.31943      4.64901        -0.000003      0.011596     -0.000075
Ga	      0.00000      6.97351      0.32958        -0.000050     -0.000011     -0.011729
Ga	      0.00000      2.32450      4.31943        -0.000045      0.000109      0.011582
Ga	      0.32958      0.00000      6.97351        -0.011737     -0.000042     -0.000011
Ga	      0.32958      4.64901      2.32450        -0.011704     -0.000085      0.000110
Ga	      2.32450      4.31943      0.00000         0.000110      0.011587     -0.000056
Ga	      2.32450      6.97351      2.32450         0.000131      0.000002      0.000133
Ga	      2.32450      2.32450      2.32450         0.000081      0.000081      0.000084
Ga	      2.32450      2.32450      6.97351         0.000128      0.000130      0.000001
Ga	      2.32450      0.32958      4.64901         0.000104     -0.011714     -0.000090
Ga	      4.31943      0.00000      2.32450         0.011589     -0.000055      0.000109
Ga	      4.31943      4.64901      6.97351         0.011592     -0.000074     -0.000011
Ga	      4.64901      2.32450      0.32958        -0.000086      0.000104     -0.011709
Ga	      4.64901      6.97351      4.31943        -0.000083     -0.000007      0.011594
Ga	      6.97351      0.32958      0.00000        -0.000011     -0.011731     -0.000041
Ga	      2.32450      6.97351      6.97351         0.000095     -0.000018     -0.000009
Ga	      2.32450      8.96843      0.00000         0.000089      0.011694     -0.000016
Ga	      4.64901      2.32450      4.97859        -0.000054      0.000089     -0.011715
Ga	      4.64901      6.97351      8.96843        -0.000055      0.000002      0.011709
Ga	      4.97859      4.64901      2.32450        -0.011706     -0.000049      0.000087
Ga	      4.97859      0.00000      6.97351        -0.011730     -0.000025      0.000013
Ga	      6.97351      8.96843      4.64901         0.000007      0.011699     -0.000064
Ga	      6.97351      2.32450      6.97351         0.000002      0.000099     -0.000010
Ga	      6.97351      6.97351      6.97351         0.000003     -0.000001      0.000007
Ga	      6.97351      6.97351      2.32450        -0.000014     -0.000001      0.000091
Ga	      6.97351      4.97859      0.00000         0.000010     -0.011727     -0.000028
Ga	      8.96843      4.64901      6.97351         0.011709     -0.000057      0.000006
Ga	      8.96843      0.00000      2.32450         0.011694     -0.000019      0.000086
Ga	      0.00000      6.97351      4.97859        -0.000023      0.000006     -0.011724
Ga	      0.00000      2.32450      8.96843        -0.000023      0.000093      0.011700
Ga	      2.32450      4.97859      4.64901         0.000085     -0.011705     -0.000045
O	      8.21852      5.66897      1.46567         0.004770     -0.003451      0.003971
O	      8.21852      3.62905      3.18333         0.004706      0.003379     -0.003897
O	      8.27805      1.46567      1.07949         0.003460      0.003968     -0.004692
O	      8.27805      3.18333      5.72850         0.003476     -0.003905     -0.004735
O	      1.01996      3.18333      1.07949        -0.003437     -0.003885     -0.004647
O	      1.01996      1.46567      5.72850        -0.003423      0.003946     -0.004725
O	      1.07949      8.27805      1.46567        -0.004694      0.003470      0.003920
O	      1.07949      1.01996      3.18333        -0.004650     -0.003409     -0.003862
O	      1.46567      5.72850      1.01996         0.003903     -0.004705     -0.003439
O	      1.46567      3.56952      3.62905         0.003925      0.004573      0.003342
O	      1.46567      1.07949      8.27805         0.003962     -0.004672      0.003467
O	      1.46567      8.21852      5.66897         0.003967      0.004724     -0.003462
O	      3.18333      3.56952      5.66897        -0.003891      0.004593     -0.003407
O	      3.18333      1.07949      1.01996        -0.003884     -0.004641     -0.003445
O	      3.18333      8.21852      3.62905        -0.003905      0.004715      0.003421
O	      3.18333      5.72850      8.27805        -0.003888     -0.004699      0.003456
O	      3.56952      3.62905      1.46567         0.004604      0.003340      0.003949
O	      3.56952      5.66897      3.18333         0.004627     -0.003454     -0.003891
O	      3.62905      1.46567      3.56952         0.003325      0.003943      0.004585
O	      3.62905      3.18333      8.21852         0.003399     -0.003914      0.004695
O	      5.66897      1.46567      8.21852        -0.003463      0.003962      0.004736
O	      5.66897      3.18333      3.56952        -0.003411     -0.003874      0.004579
O	      5.72850      8.27805      3.18333        -0.004691      0.003480     -0.003863
O	      5.72850      1.01996      1.46567        -0.004698     -0.003399      0.003917
O	      3.56952      1.01996      6.11468         0.004578     -0.003422      0.003952
O	      3.56952      8.27805      7.83234         0.004597      0.003457     -0.003939
O	      3.62905      6.11468      5.72850         0.003387      0.003944     -0.004683
O	      3.62905      7.83234      1.07949         0.003388     -0.003923     -0.004690
O	      5.66897      7.83234      5.72850        -0.003439     -0.003909     -0.004720
O	      5.66897      6.11468      1.07949        -0.003488      0.003958     -0.004663
O	      5.72850      3.62905      6.11468        -0.004695      0.003397      0.003951
O	      5.72850      5.66897      7.83234        -0.004745     -0.003452     -0.003954
O	      6.11468      1.07949      5.66897         0.003972     -0.004706     -0.003462
O	      6.11468      8.21852      8.27805         0.003972      0.004724      0.003479
O	      6.11468      5.72850      3.62905         0.003943     -0.004718      0.003394
O	      6.11468      3.56952      1.01996         0.003914      0.004548     -0.003390
O	      7.83234      8.21852      1.01996        -0.003923      0.004704     -0.003472
O	      7.83234      5.72850      5.66897        -0.003931     -0.004718     -0.003466
O	      7.83234      3.56952      8.27805        -0.003920      0.004565      0.003439
O	      7.83234      1.07949      3.62905        -0.003941     -0.004661      0.003412
O	      8.21852      8.27805      6.11468         0.004703      0.003483      0.003950
O	      8.21852      1.01996      7.83234         0.004706     -0.003438     -0.003923
O	      8.27805      6.11468      8.21852         0.003517      0.004004      0.004717
O	      8.27805      7.83234      3.56952         0.003456     -0.003937      0.004637
O	      1.01996      6.11468      3.56952        -0.003451      0.003937      0.004597
O	      1.01996      7.83234      8.21852        -0.003444     -0.003943      0.004725
O	      1.07949      3.62905      7.83234        -0.004665      0.003365     -0.003929
O	      1.07949      5.66897      6.11468        -0.004686     -0.003440      0.003957
