ITEM: TIMESTEP
0
ITEM: NUMBER OF ATOMS
30
ITEM: BOX BOUNDS xy xz yz pp pp pp
-2.5824949570000002e+00 5.1649899140000004e+00 -2.5824949570000002e+00
0.0000000000000000e+00 4.4730129019999998e+00 0.0000000000000000e+00
0.0000000000000000e+00 1.3904522606000000e+01 0.0000000000000000e+00
ITEM: ATOMS id type x y z fx fy fz
1 2       0.000000000000       0.000000000000       2.004190000000      -0.000000089476      -0.000086329525      -0.200521139883
2 2       0.000000000000       2.982010000000       0.313240000000       0.000003569198      -0.000074484490       0.200374444639
3 2       2.582490000000       1.491000000000       2.630650000000       0.000100417458       0.000059845288       0.200450229670
4 2       0.000000000000       2.982010000000       4.321610000000      -0.000041460313      -0.000028194136      -0.200391182540
5 2       2.582490000000       1.491000000000       6.639020000000       0.000069459794       0.000084848216      -0.200307000185
6 2       0.000000000000       0.000000000000       4.948070000000      -0.000047361925       0.000024464521       0.200571507827
7 2       0.000000000000       2.982010000000       7.265500000000      -0.000030982134      -0.000110439672       0.200422137677
8 2       0.000000000000       0.000000000000       8.956450000000       0.000018179184      -0.000069529369      -0.200549469719
9 2       0.000000000000       2.982010000000      11.273870000000       0.000020125362      -0.000026842485      -0.200390316101
10 2       2.582490000000       1.491000000000       9.582910000000       0.000104670663       0.000062307098       0.200428995556
11 2       0.000000000000       0.000000000000      11.900330000000      -0.000003559958       0.000005961491       0.200587959583
12 2       2.582490000000       1.491000000000      13.591290000000       0.000108609271       0.000109570423      -0.200454433886
13 1      -0.782510000000       1.355350000000       3.476130000000      -0.077122304576       0.133473556334       0.000021803800
14 1       1.565020000000       0.000000000000       3.476130000000       0.154143296432      -0.000046314436       0.000050157047
15 1       1.799980000000       3.117660000000       3.476130000000      -0.077030284040      -0.133452646492       0.000012522365
16 1       3.365010000000       0.135650000000       1.158710000000       0.077024886467      -0.133403959747       0.000067268652
17 1       3.365010000000       2.846350000000       1.158710000000       0.076948689985       0.133513889792       0.000089449994
18 1       1.017470000000       1.491000000000       1.158710000000      -0.154064416286       0.000020844918       0.000031691504
19 1       1.799980000000       2.846350000000       8.110970000000      -0.076950771382       0.133504978048       0.000089360625
20 1       4.147520000000       1.491000000000       8.110970000000       0.154075135082       0.000031840164       0.000013081728
21 1       1.799990000000       0.135650000000       8.110970000000      -0.077207503670      -0.133386142288       0.000101294263
22 1       0.782510000000       1.626660000000       5.793560000000       0.076952148892      -0.133512856496      -0.000158185095
23 1       0.782510000000       4.337360000000       5.793560000000       0.077125419655       0.133379172604      -0.000180754221
24 1      -1.565030000000       2.982010000000       5.793560000000      -0.154038718009       0.000035769889      -0.000123596046
25 1      -0.782510000000       4.337360000000      12.745820000000      -0.077161989396       0.133399815070      -0.000138903620
26 1       1.565020000000       2.982010000000      12.745820000000       0.154164756024       0.000027954526      -0.000097216858
27 1      -0.782510000000       1.626660000000      12.745820000000      -0.077065415844      -0.133514955726      -0.000089559070
28 1      -1.799980000000       3.117660000000      10.428390000000       0.077002763613      -0.133460892840       0.000008827104
29 1       0.782510000000       1.355350000000      10.428390000000       0.077070605602       0.133464845413       0.000037867802
30 1       3.599970000000       0.000000000000      10.428390000000      -0.154167875671      -0.000026076095       0.000043157388
