ITEM: TIMESTEP
0
ITEM: NUMBER OF ATOMS
20
ITEM: BOX BOUNDS xy xz yz pp pp pp
-1.3652377397480000e+00 1.2236159064971000e+01 0.0000000000000000e+00
0.0000000000000000e+00 3.0301779560000002e+00 -1.3652377397480000e+00
0.0000000000000000e+00 5.6098192148810000e+00 0.0000000000000000e+00
ITEM: ATOMS id type c_pe_atom
1 2      -3.821623832930
2 2      -3.821689170295
3 2      -7.286202857880
4 2      -7.286240255162
5 2      -3.821667865552
6 2      -3.821757643896
7 2      -7.286183035396
8 2      -7.286218270897
9 1      -4.951270197327
10 1      -4.951315520737
11 1      -8.534246975734
12 1      -8.534164668013
13 1      -5.167284338198
14 1      -5.167361880947
15 1      -4.951290100299
16 1      -4.951354250173
17 1      -8.534198747564
18 1      -8.534134773598
19 1      -5.167255013720
20 1      -5.167365255557
