120
Config_type=bulk_alpha_phase Weight=1.0 Lattice="10.127431204 0.000000000 0.000000000 -5.063715602 8.770613534 0.000000000 0.000000000 0.000000000 13.631884907" Energy=-1020.60754240 Virial="-0.41707 -0.00022 -0.00001 -0.00022 -0.41752 0.00000 -0.00001 0.00000 -0.60012" pbc="T T T" Properties=species:S:1:pos:R:3:forces:R:3
Ga	      0.00000      0.00000      1.96420         0.000000      0.000064      0.001148
Ga	     -0.00000      2.92354      0.30779        -0.000001     -0.000045     -0.001237
Ga	      2.53186      1.46177      2.57976         0.000020     -0.000030     -0.001162
Ga	     -0.00000      2.92354      4.23619         0.000009     -0.000029      0.001122
Ga	      2.53186      1.46177      6.50816        -0.000001     -0.000006      0.001189
Ga	      0.00000      0.00000      4.85174        -0.000028      0.000047     -0.001102
Ga	     -0.00000      2.92354      7.12373        -0.000004     -0.000066     -0.001196
Ga	      0.00000      0.00000      8.78014        -0.000010      0.000073      0.001157
Ga	     -0.00000      2.92354     11.05213         0.000000     -0.000020      0.001122
Ga	      2.53186      1.46177      9.39570         0.000004     -0.000013     -0.001143
Ga	      0.00000      0.00000     11.66768        -0.000043      0.000029     -0.001093
Ga	      2.53186      1.46177     13.32410        -0.000047     -0.000040      0.001245
Ga	      7.59557      4.38531      1.96420         0.000092     -0.000079      0.001149
Ga	     -2.53186      7.30884      0.30779         0.000096      0.000157     -0.001238
Ga	      0.00000      5.84708      2.57976        -0.000009     -0.000048     -0.001170
Ga	     -2.53186      7.30884      4.23619         0.000051      0.000123      0.001134
Ga	      0.00000      5.84708      6.50816         0.000005     -0.000095      0.001205
Ga	      7.59557      4.38531      4.85174         0.000034     -0.000087     -0.001115
Ga	     -2.53186      7.30884      7.12373         0.000051      0.000139     -0.001231
Ga	      7.59557      4.38531      8.78014         0.000052     -0.000087      0.001165
Ga	     -2.53186      7.30884     11.05213         0.000057      0.000150      0.001124
Ga	      0.00000      5.84708      9.39570         0.000002     -0.000059     -0.001157
Ga	      7.59557      4.38531     11.66768         0.000063     -0.000087     -0.001131
Ga	      0.00000      5.84708     13.32410        -0.000004     -0.000099      0.001224
Ga	      5.06372      0.00000      1.96420        -0.000086      0.000031      0.001148
Ga	      5.06372      2.92354      0.30779        -0.000081     -0.000033     -0.001261
Ga	      7.59557      1.46177      2.57976         0.000068     -0.000016     -0.001182
Ga	      5.06372      2.92354      4.23619        -0.000121     -0.000039      0.001104
Ga	      7.59557      1.46177      6.50816         0.000064     -0.000016      0.001196
Ga	      5.06372      0.00000      4.85174        -0.000102     -0.000001     -0.001129
Ga	      5.06372      2.92354      7.12373        -0.000080     -0.000041     -0.001204
Ga	      5.06372      0.00000      8.78014        -0.000070      0.000021      0.001148
Ga	      5.06372      2.92354     11.05213        -0.000103     -0.000010      0.001130
Ga	      7.59557      1.46177      9.39570         0.000080     -0.000008     -0.001134
Ga	      5.06372      0.00000     11.66768        -0.000110      0.000011     -0.001092
Ga	      7.59557      1.46177     13.32410         0.000080     -0.000040      0.001254
Ga	      2.53186      4.38531      1.96420         0.000012     -0.000086      0.001158
Ga	      2.53186      7.30884      0.30779        -0.000024      0.000099     -0.001240
Ga	      5.06372      5.84708      2.57976        -0.000087     -0.000073     -0.001168
Ga	      2.53186      7.30884      4.23619        -0.000024      0.000092      0.001101
Ga	      5.06372      5.84708      6.50816        -0.000094     -0.000103      0.001207
Ga	      2.53186      4.38531      4.85174         0.000010     -0.000094     -0.001116
Ga	      2.53186      7.30884      7.12373         0.000023      0.000090     -0.001262
Ga	      2.53186      4.38531      8.78014        -0.000011     -0.000095      0.001157
Ga	      2.53186      7.30884     11.05213        -0.000010      0.000083      0.001120
Ga	      5.06372      5.84708      9.39570        -0.000083     -0.000060     -0.001169
Ga	      2.53186      4.38531     11.66768        -0.000000     -0.000100     -0.001103
Ga	      5.06372      5.84708     13.32410        -0.000108     -0.000092      0.001228
O	     -0.76726      1.32894      3.40797        -0.000450      0.000773      0.000049
O	      1.53453      0.00000      3.40797         0.000910     -0.000039      0.000047
O	      1.76460      3.05637      3.40797        -0.000489     -0.000768      0.000053
O	      3.29912      0.13283      1.13599         0.000441     -0.000794      0.000020
O	      3.29912      2.79070      1.13599         0.000429      0.000903      0.000048
O	      0.99733      1.46177      1.13599        -0.000906     -0.000039      0.000028
O	      1.76460      2.79070      7.95193        -0.000430      0.000905      0.000073
O	      4.06639      1.46177      7.95193         0.000904     -0.000039      0.000058
O	      1.76460      0.13283      7.95193        -0.000491     -0.000774      0.000064
O	      0.76726      1.59460      5.67996         0.000402     -0.000818     -0.000118
O	      0.76726      4.25247      5.67996         0.000489      0.000852     -0.000088
O	     -1.53453      2.92354      5.67996        -0.000924      0.000049     -0.000125
O	     -0.76726      4.25247     12.49590        -0.000491      0.000859     -0.000056
O	      1.53453      2.92354     12.49590         0.000901      0.000059     -0.000091
O	     -0.76726      1.59460     12.49590        -0.000425     -0.000801     -0.000082
O	      8.36283      3.05637     10.22391         0.000482     -0.000777      0.000072
O	      0.76726      1.32894     10.22391         0.000438      0.000769      0.000042
O	      3.52919      0.00000     10.22391        -0.000961     -0.000081      0.000069
O	      6.82831      5.71424      3.40797        -0.000387      0.000846      0.000077
O	     -0.99733      4.38531      3.40797         0.000913     -0.000018      0.000043
O	     -0.76726      7.44168      3.40797        -0.000477     -0.000835      0.000056
O	      0.76726      4.51814      1.13599         0.000462     -0.000742      0.000027
O	      0.76726      7.17601      1.13599         0.000443      0.000798      0.000038
O	     -1.53453      5.84708      1.13599        -0.000894     -0.000098      0.000052
O	     -0.76726      7.17601      7.95193        -0.000410      0.000807      0.000069
O	      1.53453      5.84708      7.95193         0.000894     -0.000103      0.000084
O	     -0.76726      4.51814      7.95193        -0.000461     -0.000742      0.000055
O	     -1.76460      5.97991      5.67996         0.000400     -0.000843     -0.000114
O	     -1.76460      8.63778      5.67996         0.000529      0.000756     -0.000119
O	     -4.06639      7.30884      5.67996        -0.000872      0.000110     -0.000153
O	     -3.29912      8.63778     12.49590        -0.000467      0.000752     -0.000089
O	     -0.99733      7.30884     12.49590         0.000920      0.000104     -0.000130
O	     -3.29912      5.97991     12.49590        -0.000372     -0.000830     -0.000116
O	      5.83097      7.44168     10.22391         0.000532     -0.000802      0.000082
O	     -1.76460      5.71424     10.22391         0.000456      0.000857      0.000067
O	      0.99733      4.38531     10.22391        -0.000928     -0.000017      0.000039
O	      4.29646      1.32894      3.40797        -0.000473      0.000787      0.000041
O	      6.59824      0.00000      3.40797         0.000999     -0.000073      0.000071
O	      6.82831      3.05637      3.40797        -0.000407     -0.000751      0.000050
O	      8.36283      0.13283      1.13599         0.000511     -0.000776      0.000055
O	      8.36283      2.79070      1.13599         0.000456      0.000892      0.000041
O	      6.06105      1.46177      1.13599        -0.000952     -0.000035      0.000016
O	      6.82832      2.79070      7.95193        -0.000503      0.000885      0.000054
O	      9.13010      1.46177      7.95193         0.000958     -0.000031      0.000050
O	      6.82832      0.13283      7.95193        -0.000554     -0.000758      0.000079
O	      5.83097      1.59460      5.67996         0.000494     -0.000799     -0.000074
O	      5.83097      4.25247      5.67996         0.000597      0.000853     -0.000094
O	      3.52919      2.92354      5.67996        -0.000955      0.000045     -0.000103
O	      4.29646      4.25247     12.49590        -0.000506      0.000869     -0.000060
O	      6.59824      2.92354     12.49590         0.000949      0.000031     -0.000086
O	      4.29645      1.59460     12.49590        -0.000290     -0.000820     -0.000100
O	      3.29912      3.05637     10.22391         0.000476     -0.000757      0.000055
O	      5.83097      1.32894     10.22391         0.000522      0.000783      0.000040
O	      8.59290      0.00000     10.22391        -0.000895     -0.000039      0.000054
O	      1.76460      5.71424      3.40797        -0.000445      0.000867      0.000050
O	      4.06639      4.38531      3.40797         0.000905     -0.000007      0.000033
O	      4.29646      7.44168      3.40797        -0.000523     -0.000812      0.000053
O	      5.83098      4.51814      1.13599         0.000403     -0.000745      0.000011
O	      5.83098      7.17601      1.13599         0.000361      0.000817      0.000051
O	      3.52919      5.84708      1.13599        -0.000884     -0.000099      0.000057
O	      4.29646      7.17601      7.95193        -0.000462      0.000817      0.000059
O	      6.59824      5.84708      7.95193         0.000967     -0.000098      0.000081
O	      4.29646      4.51814      7.95193        -0.000495     -0.000760      0.000082
O	      3.29912      5.97991      5.67996         0.000407     -0.000826     -0.000101
O	      3.29911      8.63778      5.67996         0.000593      0.000762     -0.000138
O	      0.99733      7.30884      5.67996        -0.000919      0.000084     -0.000129
O	      1.76460      8.63778     12.49590        -0.000519      0.000781     -0.000093
O	      4.06638      7.30884     12.49590         0.001013      0.000099     -0.000109
O	      1.76460      5.97991     12.49590        -0.000447     -0.000844     -0.000090
O	      0.76726      7.44168     10.22391         0.000497     -0.000809      0.000058
O	      3.29912      5.71424     10.22391         0.000444      0.000844      0.000056
O	      6.06105      4.38531     10.22391        -0.000970     -0.000028      0.000048
