ITEM: TIMESTEP
0
ITEM: NUMBER OF ATOMS
30
ITEM: BOX BOUNDS xy xz yz pp pp pp
-2.5419852320000000e+00 5.0839704650000002e+00 -2.5419852320000000e+00
0.0000000000000000e+00 4.4028479940000000e+00 0.0000000000000000e+00
0.0000000000000000e+00 1.3686412447000000e+01 0.0000000000000000e+00
ITEM: ATOMS id type x y z fx fy fz
1 2       0.000000000000       0.000000000000       1.972130000000       0.000005778612      -0.000008237509      -0.112236422967
2 2       0.000000000000       2.935230000000       0.308940000000       0.000005050414       0.000023909052       0.112101185551
3 2       2.541990000000       1.467620000000       2.590000000000      -0.000098802905      -0.000099464505       0.112183814279
4 2       0.000000000000       2.935230000000       4.253200000000       0.000016561182       0.000051597683      -0.112173669709
5 2       2.541990000000       1.467620000000       6.534260000000      -0.000128263943      -0.000105898273      -0.111996145748
6 2       0.000000000000       0.000000000000       4.871080000000      -0.000072300141      -0.000015634287       0.112170812300
7 2       0.000000000000       2.935230000000       7.152150000000       0.000070555085       0.000030568249       0.112169838501
8 2       0.000000000000       0.000000000000       8.815340000000       0.000065884861       0.000004942154      -0.112246333788
9 2       0.000000000000       2.935230000000      11.096410000000       0.000030715331       0.000046044536      -0.112189429202
10 2       2.541990000000       1.467620000000       9.433210000000      -0.000075024204      -0.000077642652       0.112163129234
11 2       0.000000000000       0.000000000000      11.714280000000       0.000018909172      -0.000031539017       0.112201969284
12 2       2.541990000000       1.467620000000      13.377470000000      -0.000094499050      -0.000110886399      -0.112149028656
13 1      -0.770340465000       1.334270000000       3.421600000000      -0.056938057352       0.098646932846       0.000065731415
14 1       1.540680000000       0.000000000000       3.421600000000       0.113976878873       0.000018383571       0.000029452370
15 1       1.771650000000       3.068580000000       3.421600000000      -0.057060830183      -0.098653698946       0.000077216602
16 1       3.312320000000       0.133340000000       1.140530000000       0.057084224709      -0.098540408053       0.000099466297
17 1       3.312330000000       2.801880000000       1.140530000000       0.056847878984       0.098733025023       0.000074838247
18 1       1.001300000000       1.467620000000       1.140530000000      -0.113849483697      -0.000118230862       0.000084398614
19 1       1.771650000000       2.801880000000       7.983740000000      -0.056988165408       0.098724687113       0.000031946142
20 1       4.082670000000       1.467620000000       7.983740000000       0.113899474495      -0.000132565114       0.000057195235
21 1       1.771650000000       0.133340000000       7.983740000000      -0.057043836019      -0.098530906181       0.000084003130
22 1       0.770340000000       1.600960000000       5.702680000000       0.056886614048      -0.098622231946      -0.000115771714
23 1       0.770330000000       4.269500000000       5.702680000000       0.057159412975       0.098594716066      -0.000180197770
24 1      -1.540690000000       2.935230000000       5.702680000000      -0.113783257344       0.000100858785      -0.000164593961
25 1      -0.770340000000       4.269500000000      12.545880000000      -0.056982074553       0.098671477561      -0.000024532049
26 1       1.540680000000       2.935230000000      12.545880000000       0.113955522276       0.000059619215      -0.000061530229
27 1      -0.770340000000       1.600960000000      12.545880000000      -0.056925919505      -0.098644642170      -0.000047432699
28 1      -1.771640465000       3.068580000000      10.264810000000       0.056918362052      -0.098669351746       0.000013246621
29 1       0.770340000000       1.334270000000      10.264810000000       0.057024514020       0.098657929005      -0.000022584184
30 1       3.543290000000       0.000000000000      10.264810000000      -0.113925822785      -0.000003353200      -0.000000571147
