ITEM: TIMESTEP
0
ITEM: NUMBER OF ATOMS
80
ITEM: BOX BOUNDS pp pp pp
0.0000000000000000e+00 9.5803415570000006e+00
0.0000000000000000e+00 9.5803415570000006e+00
0.0000000000000000e+00 9.5803415570000006e+00
ITEM: ATOMS id type x y z fx fy fz
1 2       7.185260000000       2.395090000000       2.395090000000      -0.000050020671      -0.000052418143      -0.000065752163
2 2       7.185260000000       4.434890000000       4.790170000000      -0.000060814748       0.227148923816       0.000023980076
3 2       0.000000000000       7.185260000000       0.355280000000       0.000009842552      -0.000064212787      -0.227094828448
4 2       0.000000000000       2.395090000000       4.434890000000       0.000051413970      -0.000101200678       0.227152039089
5 2       0.355280000000       0.000000000000       7.185260000000      -0.227094828448       0.000009842552      -0.000064212787
6 2       0.355280000000       4.790170000000       2.395090000000      -0.227093178803       0.000065550927      -0.000104598727
7 2       2.395090000000       4.434890000000       0.000000000000      -0.000101200678       0.227152039089       0.000051413970
8 2       2.395090000000       7.185260000000       2.395090000000      -0.000065752163      -0.000050020671      -0.000052418143
9 2       2.395090000000       2.395090000000       2.395090000000      -0.000038804696      -0.000038804696      -0.000038804696
10 2       2.395090000000       2.395090000000       7.185260000000      -0.000052418143      -0.000065752163      -0.000050020671
11 2       2.395090000000       0.355280000000       4.790170000000      -0.000104598727      -0.227093178803       0.000065550927
12 2       4.434890000000       0.000000000000       2.395090000000       0.227152039089       0.000051413970      -0.000101200678
13 2       4.434890000000       4.790170000000       7.185260000000       0.227148923816       0.000023980076      -0.000060814748
14 2       4.790170000000       2.395090000000       0.355280000000       0.000065550927      -0.000104598727      -0.227093178803
15 2       4.790170000000       7.185260000000       4.434890000000       0.000023980076      -0.000060814748       0.227148923816
16 2       7.185260000000       0.355280000000       0.000000000000      -0.000064212787      -0.227094828448       0.000009842552
17 2       2.395090000000       7.185260000000       7.185260000000      -0.000055002285      -0.000051907524      -0.000068105137
18 2       2.395090000000       9.225060000000       0.000000000000      -0.000066208143       0.227163716710       0.000012449826
19 2       4.790170000000       2.395090000000       5.145450000000       0.000026586564      -0.000062809244      -0.227070457309
20 2       4.790170000000       7.185260000000       9.225060000000       0.000068157807      -0.000102604037       0.227160601578
21 2       5.145450000000       4.790170000000       2.395090000000      -0.227070457309       0.000026586564      -0.000062809244
22 2       5.145450000000       0.000000000000       7.185260000000      -0.227072107105       0.000054020891      -0.000099205412
23 2       7.185260000000       9.225060000000       4.790170000000      -0.000102604037       0.227160601578       0.000068157807
24 2       7.185260000000       2.395090000000       7.185260000000      -0.000068105137      -0.000055002286      -0.000051907524
25 2       7.185260000000       7.185260000000       7.185260000000      -0.000036686637      -0.000036686637      -0.000036686637
26 2       7.185260000000       7.185260000000       2.395090000000      -0.000051907524      -0.000068105137      -0.000055002286
27 2       7.185260000000       5.145450000000       0.000000000000      -0.000099205412      -0.227072107105       0.000054020891
28 2       9.225060000000       4.790170000000       7.185260000000       0.227160601578       0.000068157807      -0.000102604037
29 2       9.225060000000       0.000000000000       2.395090000000       0.227163716710       0.000012449826      -0.000066208143
30 2       0.000000000000       7.185260000000       5.145450000000       0.000054020891      -0.000099205412      -0.227072107105
31 2       0.000000000000       2.395090000000       9.225060000000       0.000012449826      -0.000066208143       0.227163716710
32 2       2.395090000000       5.145450000000       4.790170000000      -0.000062809244      -0.227070457309       0.000026586564
33 1       8.504970000000       5.879220000000       1.523950000000       0.069615708984      -0.187914993894       0.002606927343
34 1       8.504970000000       3.701120000000       3.266220000000       0.069595206151       0.187906041333      -0.002582318664
35 1       8.491290000000       1.523950000000       1.075370000000       0.187934271498       0.002608653623      -0.069610632529
36 1       8.491290000000       3.266220000000       5.865540000000       0.187911484979      -0.002578543798      -0.069572310354
37 1       1.089050000000       3.266220000000       1.075370000000      -0.187898434410      -0.002576083426      -0.069576711442
38 1       1.089050000000       1.523950000000       5.865540000000      -0.187911857579       0.002600125085      -0.069587387569
39 1       1.075370000000       8.491290000000       1.523950000000      -0.069610632529       0.187934271498       0.002608653623
40 1       1.075370000000       1.089050000000       3.266220000000      -0.069576711442      -0.187898434410      -0.002576083426
41 1       1.523950000000       5.865540000000       1.089050000000       0.002600125085      -0.069587387569      -0.187911857579
42 1       1.523950000000       3.714800000000       3.701120000000       0.002606416301       0.069600825468       0.187919423618
43 1       1.523950000000       1.075370000000       8.491290000000       0.002608653623      -0.069610632529       0.187934271498
44 1       1.523950000000       8.504970000000       5.879220000000       0.002606927343       0.069615708984      -0.187914993894
45 1       3.266220000000       3.714800000000       5.879220000000      -0.002576875219       0.069572327675      -0.187892164820
46 1       3.266220000000       1.075370000000       1.089050000000      -0.002576083426      -0.069576711442      -0.187898434410
47 1       3.266220000000       8.504970000000       3.701120000000      -0.002582318664       0.069595206151       0.187906041333
48 1       3.266220000000       5.865540000000       8.491290000000      -0.002578543798      -0.069572310354       0.187911484979
49 1       3.714800000000       3.701120000000       1.523950000000       0.069600825468       0.187919423618       0.002606416301
50 1       3.714800000000       5.879220000000       3.266220000000       0.069572327675      -0.187892164820      -0.002576875219
51 1       3.701120000000       1.523950000000       3.714800000000       0.187919423618       0.002606416301       0.069600825468
52 1       3.701120000000       3.266220000000       8.504970000000       0.187906041333      -0.002582318664       0.069595206151
53 1       5.879220000000       1.523950000000       8.504970000000      -0.187914993894       0.002606927343       0.069615708984
54 1       5.879220000000       3.266220000000       3.714800000000      -0.187892164820      -0.002576875219       0.069572327675
55 1       5.865540000000       8.491290000000       3.266220000000      -0.069572310354       0.187911484979      -0.002578543798
56 1       5.865540000000       1.089050000000       1.523950000000      -0.069587387569      -0.187911857579       0.002600125085
57 1       3.714800000000       1.089050000000       6.314120000000       0.069595725166      -0.187913488680       0.002610333826
58 1       3.714800000000       8.491290000000       8.056390000000       0.069580614717       0.187911317842      -0.002574267494
59 1       3.701120000000       6.314120000000       5.865540000000       0.187920255558       0.002606302680      -0.069591333884
60 1       3.701120000000       8.056390000000       1.075370000000       0.187905035534      -0.002567774947      -0.069580626180
61 1       5.879220000000       8.056390000000       5.865540000000      -0.187891200380      -0.002562275004      -0.069562805036
62 1       5.879220000000       6.314120000000       1.075370000000      -0.187915781848       0.002606872325      -0.069601157176
63 1       5.865540000000       3.701120000000       6.314120000000      -0.069591333884       0.187920255558       0.002606302680
64 1       5.865540000000       5.879220000000       8.056390000000      -0.069562805036      -0.187891200380      -0.002562275004
65 1       6.314120000000       1.075370000000       5.879220000000       0.002606872325      -0.069601157176      -0.187915781848
66 1       6.314120000000       8.504970000000       8.491290000000       0.002618805878       0.069624027467       0.187935943944
67 1       6.314120000000       5.865540000000       3.701120000000       0.002606302680      -0.069591333884       0.187920255558
68 1       6.314120000000       3.714800000000       1.089050000000       0.002610333826       0.069595725166      -0.187913488680
69 1       8.056390000000       8.504970000000       1.089050000000      -0.002571748510       0.069590076025      -0.187898311284
70 1       8.056390000000       5.865540000000       5.879220000000      -0.002562275004      -0.069562805036      -0.187891200380
71 1       8.056390000000       3.714800000000       8.491290000000      -0.002574267494       0.069580614717       0.187911317842
72 1       8.056390000000       1.075370000000       3.701120000000      -0.002567774947      -0.069580626180       0.187905035534
73 1       8.504970000000       8.491290000000       6.314120000000       0.069624027467       0.187935943944       0.002618805878
74 1       8.504970000000       1.089050000000       8.056390000000       0.069590076025      -0.187898311284      -0.002571748510
75 1       8.491290000000       6.314120000000       8.504970000000       0.187935943944       0.002618805878       0.069624027467
76 1       8.491290000000       8.056390000000       3.714800000000       0.187911317842      -0.002574267494       0.069580614717
77 1       1.089050000000       6.314120000000       3.714800000000      -0.187913488680       0.002610333826       0.069595725166
78 1       1.089050000000       8.056390000000       8.504970000000      -0.187898311284      -0.002571748510       0.069590076025
79 1       1.075370000000       3.701120000000       8.056390000000      -0.069580626180       0.187905035534      -0.002567774947
80 1       1.075370000000       5.879220000000       6.314120000000      -0.069601157176      -0.187915781848       0.002606872325
