ITEM: TIMESTEP
0
ITEM: NUMBER OF ATOMS
80
ITEM: BOX BOUNDS pp pp pp
0.0000000000000000e+00 9.5803415570000006e+00
0.0000000000000000e+00 9.5803415570000006e+00
0.0000000000000000e+00 9.5803415570000006e+00
ITEM: ATOMS id type c_pe_atom
1 2      -5.482419186552
2 2      -5.317126966705
3 2      -5.317127956568
4 2      -5.317127159326
5 2      -5.317127956568
6 2      -5.317127424347
7 2      -5.317127159326
8 2      -5.482419186552
9 2      -5.482418978904
10 2      -5.482419186552
11 2      -5.317127424347
12 2      -5.317127159326
13 2      -5.317126966705
14 2      -5.317127424347
15 2      -5.317126966705
16 2      -5.317127956568
17 2      -5.482419394280
18 2      -5.317127702346
19 2      -5.317126953152
20 2      -5.317127509755
21 2      -5.317126953152
22 2      -5.317127485405
23 2      -5.317127509755
24 2      -5.482419394280
25 2      -5.482419602074
26 2      -5.482419394280
27 2      -5.317127485405
28 2      -5.317127509755
29 2      -5.317127702346
30 2      -5.317127485405
31 2      -5.317127702346
32 2      -5.317126953152
33 1     -10.561670578596
34 1     -10.561689678093
35 1     -10.561670497959
36 1     -10.561678910178
37 1     -10.561667172859
38 1     -10.561660990023
39 1     -10.561670497959
40 1     -10.561667172859
41 1     -10.561660990023
42 1     -10.561684396266
43 1     -10.561670497959
44 1     -10.561670578596
45 1     -10.561679891643
46 1     -10.561667172859
47 1     -10.561689678093
48 1     -10.561678910178
49 1     -10.561684396266
50 1     -10.561679891643
51 1     -10.561684396266
52 1     -10.561689678093
53 1     -10.561670578596
54 1     -10.561679891643
55 1     -10.561678910178
56 1     -10.561660990023
57 1     -10.561671783721
58 1     -10.561689921623
59 1     -10.561671996480
60 1     -10.561678397254
61 1     -10.561667709769
62 1     -10.561659079386
63 1     -10.561671996480
64 1     -10.561667709769
65 1     -10.561659079386
66 1     -10.561680390665
67 1     -10.561671996480
68 1     -10.561671783721
69 1     -10.561677283682
70 1     -10.561667709769
71 1     -10.561689921623
72 1     -10.561678397254
73 1     -10.561680390665
74 1     -10.561677283682
75 1     -10.561680390665
76 1     -10.561689921623
77 1     -10.561671783721
78 1     -10.561677283682
79 1     -10.561678397254
80 1     -10.561659079386
