ITEM: TIMESTEP
0
ITEM: NUMBER OF ATOMS
30
ITEM: BOX BOUNDS xy xz yz pp pp pp
-2.4913480760000000e+00 4.9826961519999999e+00 -2.4913480760000000e+00
0.0000000000000000e+00 4.3151418589999997e+00 0.0000000000000000e+00
0.0000000000000000e+00 1.3413774749000000e+01 0.0000000000000000e+00
ITEM: ATOMS id type v_vir_xx v_vir_yy v_vir_zz v_vir_xy v_vir_xz v_vir_yz
1 2      -5.357347112651      -5.357391030299      -4.793384910314       0.000011957252      -0.000004362231       0.000020765533
2 2      -5.357394557858      -5.357438172934      -4.793549150181      -0.000031017562       0.000003064476      -0.000009437001
3 2      -5.357282884075      -5.357301235648      -4.793406935804      -0.000018460320      -0.000003566115       0.000019021907
4 2      -5.357306288059      -5.357313618451      -4.793372749842       0.000015964003       0.000008721275       0.000005895925
5 2      -5.357405557867      -5.357458404204      -4.793623727312       0.000014208361       0.000026373882      -0.000012335342
6 2      -5.357337537461      -5.357402289540      -4.793316423981       0.000039737388       0.000011202305       0.000004998437
7 2      -5.357466636546      -5.357482657248      -4.793639685222       0.000015367745       0.000009638593      -0.000006709796
8 2      -5.357368699599      -5.357437281919      -4.793522657938       0.000021361264      -0.000002017841       0.000024502111
9 2      -5.357387048189      -5.357393827400      -4.793502779809      -0.000012505562      -0.000023292358       0.000015511889
10 2      -5.357338300593      -5.357384635994      -4.793531988948       0.000005986267      -0.000010344140       0.000025059272
11 2      -5.357356980755      -5.357410805526      -4.793493531737      -0.000028449904      -0.000015824615       0.000002769865
12 2      -5.357480759748      -5.357441874843      -4.793578225730      -0.000034151551       0.000000405375      -0.000011993568
13 1       2.015599064356       2.830116963488       2.167196091489      -0.705352462247       0.336256987432       0.194136354924
14 1       3.237263661263       1.608392302202       2.167186788003      -0.000013288687       0.000000634029      -0.388269688437
15 1       2.015600691449       2.830098036581       2.167187925567       0.705325773315      -0.336257004038       0.194143220676
16 1       2.015611187160       2.830032770996       2.167148279095      -0.705353617525       0.336241165109       0.194112856769
17 1       2.015582122110       2.830097104518       2.167172324640       0.705343480615      -0.336248493907       0.194135227669
18 1       3.237303941727       1.608375600062       2.167161060672       0.000028274104       0.000003065167      -0.388256193697
19 1       2.015558934887       2.830132289565       2.167204675308      -0.705325197468       0.336227009890       0.194142609235
20 1       3.237283342481       1.608369586791       2.167188009844      -0.000049442513       0.000001824356      -0.388242202671
21 1       2.015642086156       2.830033185750       2.167182867525       0.705389312427      -0.336237631859       0.194102736423
22 1       2.015615087710       2.830120518195       2.167174244771      -0.705343671403       0.336256989530       0.194130263555
23 1       2.015648293657       2.830033164035       2.167153706150       0.705356345161      -0.336249142375       0.194098438820
24 1       3.237289246470       1.608396490670       2.167170896270      -0.000044385702      -0.000002682417      -0.388245335123
25 1       2.015631280436       2.830032932698       2.167180276858      -0.705374357696       0.336244667881       0.194097699844
26 1       3.237292139982       1.608376831524       2.167189722431       0.000042943015      -0.000004592034      -0.388252965392
27 1       2.015542363333       2.830125005212       2.167198781918       0.705328010215      -0.336215949752       0.194150547499
28 1       2.015614430162       2.830133904206       2.167201185741      -0.705314458053       0.336244478710       0.194140134182
29 1       2.015676350392       2.830120981891       2.167209168558       0.705356591376      -0.336262795217       0.194130266690
30 1       3.237297933450       1.608423608929       2.167192253589       0.000000179619       0.000001467004      -0.388264782164
