ITEM: TIMESTEP
0
ITEM: NUMBER OF ATOMS
30
ITEM: BOX BOUNDS xy xz yz pp pp pp
-2.4913480760000000e+00 4.9826961519999999e+00 -2.4913480760000000e+00
0.0000000000000000e+00 4.3151418589999997e+00 0.0000000000000000e+00
0.0000000000000000e+00 1.3413774749000000e+01 0.0000000000000000e+00
ITEM: ATOMS id type c_pe_atom
1 2      -2.427045378798
2 2      -2.426990480698
3 2      -2.427099619540
4 2      -2.427184104922
5 2      -2.426976862470
6 2      -2.427119801029
7 2      -2.426899532041
8 2      -2.426989399222
9 2      -2.427056338437
10 2      -2.427061931248
11 2      -2.427009617028
12 2      -2.426963223507
13 1      -8.255815551940
14 1      -8.255769535749
15 1      -8.255809656059
16 1      -8.255839930341
17 1      -8.255853886421
18 1      -8.255841672197
19 1      -8.255851862119
20 1      -8.255844438372
21 1      -8.255869867210
22 1      -8.255854184547
23 1      -8.255804363393
24 1      -8.255773613270
25 1      -8.255862773469
26 1      -8.255844955042
27 1      -8.255822348671
28 1      -8.255794189135
29 1      -8.255858365664
30 1      -8.255805593715
