30
Config_type=bulk_alpha_phase Weight=1.0 Lattice="4.982696152 0.000000000 0.000000000 -2.491348076 4.315141859 0.000000000 0.000000000 0.000000000 13.413774749" Energy=-254.64707660 Virial="20.05840 -0.00001 -0.00002 -0.00001 20.05835 -0.00007 -0.00002 -0.00007 17.83147" pbc="T T T" Properties=species:S:1:pos:R:3:forces:R:3
Ga	      0.00000      0.00000      1.93345         0.000002     -0.000029     -0.015623
Ga	     -0.00000      2.87676      0.30218        -0.000010     -0.000002      0.015588
Ga	      2.49135      1.43838      2.53780        -0.000029      0.000015      0.015683
Ga	     -0.00000      2.87676      4.16909        -0.000022      0.000011     -0.015778
Ga	      2.49135      1.43838      6.40471        -0.000070      0.000016     -0.015611
Ga	      0.00000      0.00000      4.77344        -0.000015     -0.000001      0.015520
Ga	     -0.00000      2.87676      7.00907        -0.000002     -0.000008      0.015587
Ga	      0.00000      0.00000      8.64034         0.000030     -0.000051     -0.015669
Ga	     -0.00000      2.87676     10.87597         0.000032      0.000019     -0.015604
Ga	      2.49135      1.43838      9.24469        -0.000035      0.000020      0.015692
Ga	      0.00000      0.00000     11.48032         0.000019      0.000017      0.015710
Ga	      2.49135      1.43838     13.11159        -0.000063     -0.000008     -0.015513
O	     -0.75489      1.30751      3.35344        -0.008331      0.014458      0.000046
O	      1.50979      0.00000      3.35344         0.016565     -0.000048      0.000067
O	      1.73645      3.00763      3.35344        -0.008228     -0.014426      0.000037
O	      3.24624      0.13086      1.11781         0.008384     -0.014261      0.000043
O	      3.24624      2.74589      1.11781         0.008258      0.014451      0.000058
O	      0.98156      1.43838      1.11781        -0.016583     -0.000089      0.000029
O	      1.73645      2.74589      7.82470        -0.008171      0.014451      0.000115
O	      4.00114      1.43838      7.82470         0.016558     -0.000035      0.000065
O	      1.73646      0.13086      7.82470        -0.008424     -0.014300      0.000098
O	      0.75489      1.56925      5.58908         0.008325     -0.014439     -0.000063
O	      0.75489      4.18428      5.58908         0.008385      0.014288     -0.000098
O	     -1.50979      2.87676      5.58908        -0.016594      0.000066     -0.000094
O	     -0.75489      4.18428     12.29596        -0.008431      0.014357     -0.000071
O	      1.50979      2.87676     12.29596         0.016624      0.000051     -0.000074
O	     -0.75490      1.56925     12.29596        -0.008170     -0.014495     -0.000090
O	     -1.73645      3.00763     10.06033         0.008194     -0.014435     -0.000043
O	      0.75489      1.30751     10.06033         0.008383      0.014422     -0.000009
O	      3.47291      0.00000     10.06033        -0.016581     -0.000014      0.000003
