ITEM: TIMESTEP
0
ITEM: NUMBER OF ATOMS
20
ITEM: BOX BOUNDS xy xz yz pp pp pp
-1.4125066631990000e+00 1.2659814267052999e+01 0.0000000000000000e+00
0.0000000000000000e+00 3.1350924679999999e+00 -1.4125066631990000e+00
0.0000000000000000e+00 5.8040492080880002e+00 0.0000000000000000e+00
ITEM: ATOMS id type c_pe_atom
1 2      -5.239967544399
2 2      -5.239968287146
3 2      -4.785061623569
4 2      -4.785065054766
5 2      -5.239967263724
6 2      -5.239966909634
7 2      -4.785066134238
8 2      -4.785061844193
9 1     -10.947406272223
10 1     -10.947400772475
11 1     -10.776026798103
12 1     -10.776019052567
13 1     -10.846112795868
14 1     -10.846115581011
15 1     -10.947402095630
16 1     -10.947397127769
17 1     -10.776018618966
18 1     -10.776017282125
19 1     -10.846110266278
20 1     -10.846113215479
