20
Config_type=bulk_beta_phase Weight=1.0 Lattice="12.300785290 0.000000000 -2.993589572 0.000000000 3.135092468 0.000000000 0.000000000 0.000000000 5.973454803" Energy=-170.46005940 Virial="-9.16381 0.00003 -0.25964 0.00003 -10.18869 -0.00016 -0.25964 -0.00016 -9.83134" pbc="T T T" Properties=species:S:1:pos:R:3:forces:R:3
Ga	      1.94031      1.56755      1.40900        -0.014849     -0.000042      0.011471
Ga	      4.21008      0.00000      3.06766         0.014877      0.000021     -0.011467
Ga	      1.09873      0.00000      4.48418        -0.022907      0.000045     -0.024112
Ga	      5.05167      1.56755     -0.00752         0.022716     -0.000072      0.024127
Ga	      8.09070      0.00000     -0.08779        -0.014783      0.000016      0.011473
Ga	     10.36048      1.56755      1.57086         0.014801     -0.000041     -0.011443
Ga	      7.24912      1.56755      2.98739        -0.022824     -0.000069     -0.024127
Ga	     11.20206      0.00000     -1.50432         0.022807      0.000045      0.024149
O	      6.08716      0.00000      0.05774        -0.004712      0.000057      0.004692
O	      0.06323      1.56755      4.41892         0.004871      0.000119     -0.004902
O	      2.14843      0.00000      2.86778        -0.003123      0.000009      0.003920
O	      4.00196      1.56755      1.60888         0.003154     -0.000024     -0.003919
O	      4.19092      1.56755      4.29285        -0.002336     -0.000040     -0.000272
O	      1.95947      0.00000      0.18381         0.002370      0.000026      0.000333
O	     12.23756      1.56755     -1.43906        -0.004852     -0.000075      0.004702
O	      6.21362      0.00000      2.92213         0.004831      0.000058     -0.004674
O	      8.29883      1.56755      1.37099        -0.003244     -0.000025      0.003918
O	     10.15235      0.00000      0.11208         0.003221      0.000009     -0.003905
O	     10.34131      0.00000      2.79605        -0.002286      0.000026     -0.000240
O	      8.10987      1.56755     -1.31298         0.002268     -0.000041      0.000276
