ITEM: TIMESTEP
0
ITEM: NUMBER OF ATOMS
30
ITEM: BOX BOUNDS xy xz yz pp pp pp
-2.5774312410000002e+00 5.1548624829999996e+00 -2.5774312410000002e+00
0.0000000000000000e+00 4.4642422890000004e+00 0.0000000000000000e+00
0.0000000000000000e+00 1.3877258835999999e+01 0.0000000000000000e+00
ITEM: ATOMS id type c_pe_atom
1 2      -4.947282840827
2 2      -4.947278560668
3 2      -4.947292146381
4 2      -4.947288814461
5 2      -4.947288602294
6 2      -4.947280167766
7 2      -4.947279563249
8 2      -4.947283336371
9 2      -4.947290221357
10 2      -4.947289130453
11 2      -4.947280232192
12 2      -4.947288726586
13 1     -10.844170622321
14 1     -10.844172636111
15 1     -10.844170365189
16 1     -10.844164090656
17 1     -10.844166174018
18 1     -10.844168901231
19 1     -10.844167238779
20 1     -10.844166323333
21 1     -10.844166797089
22 1     -10.844174653085
23 1     -10.844169688832
24 1     -10.844172959181
25 1     -10.844171459522
26 1     -10.844171720196
27 1     -10.844171806572
28 1     -10.844170302880
29 1     -10.844170785068
30 1     -10.844168752847
