ITEM: TIMESTEP
0
ITEM: NUMBER OF ATOMS
30
ITEM: BOX BOUNDS xy xz yz pp pp pp
-2.5774312410000002e+00 5.1548624829999996e+00 -2.5774312410000002e+00
0.0000000000000000e+00 4.4642422890000004e+00 0.0000000000000000e+00
0.0000000000000000e+00 1.3877258835999999e+01 0.0000000000000000e+00
ITEM: ATOMS id type x y z fx fy fz
1 2       0.000000000000       0.000000000000       2.000260000000       0.000015345415      -0.000022034893      -0.192210798273
2 2      -0.000000000000       2.976160000000       0.312620000000       0.000013217820       0.000037857885       0.192092832127
3 2       2.577430000000       1.488080000000       2.625490000000       0.000001154147       0.000032670373       0.192020352593
4 2      -0.000000000000       2.976160000000       4.313140000000      -0.000025460811      -0.000006508800      -0.192086681573
5 2       2.577430000000       1.488080000000       6.626010000000       0.000026741416       0.000006041473      -0.192005604171
6 2       0.000000000000       0.000000000000       4.938370000000       0.000004582523       0.000016506383       0.192145849615
7 2      -0.000000000000       2.976160000000       7.251250000000      -0.000009495334       0.000032612339       0.192053125763
8 2       0.000000000000       0.000000000000       8.938890000000       0.000035996473      -0.000037060656      -0.192230896677
9 2      -0.000000000000       2.976160000000      11.251770000000       0.000034167939       0.000014100407      -0.192106340650
10 2       2.577430000000       1.488080000000       9.564120000000       0.000062076359       0.000015943836       0.192031472866
11 2       0.000000000000       0.000000000000      11.877000000000      -0.000035475370      -0.000002481406       0.192168578107
12 2       2.577430000000       1.488080000000      13.564640000000       0.000009249879       0.000027964476      -0.192030917298
13 1       4.373880000000       1.352690000000       3.469310000000      -0.073622163005       0.127788153745       0.000097804421
14 1       1.561960000000       0.000000000000       3.469310000000       0.147388023286      -0.000054443020       0.000083787225
15 1       1.796450000000       3.111550000000       3.469310000000      -0.073703779236      -0.127736649887       0.000041409624
16 1       3.358410000000       0.135390000000       1.156430000000       0.073772768050      -0.127741051847       0.000098849495
17 1       3.358410000000       2.840770000000       1.156430000000       0.073658849119       0.127808417811       0.000147833255
18 1       1.015480000000       1.488080000000       1.156430000000      -0.147521735893      -0.000061678578       0.000144502769
19 1       1.796450000000       2.840770000000       8.095060000000      -0.073591806417       0.127798472914       0.000168145481
20 1       4.139390000000       1.488080000000       8.095060000000       0.147423324659      -0.000044530634       0.000127217907
21 1       1.796460000000       0.135390000000       8.095060000000      -0.073876747012      -0.127728956285       0.000136036142
22 1       0.780980000000       1.623470000000       5.782200000000       0.073606662169      -0.127760039319      -0.000206047640
23 1       0.780980000000       4.328860000000       5.782200000000       0.073749572184       0.127584154955      -0.000164320345
24 1      -1.561960000000       2.976160000000       5.782200000000      -0.147386352119       0.000106845605      -0.000171696579
25 1      -0.780980000000       4.328860000000      12.720830000000      -0.073782295226       0.127587757408      -0.000177191278
26 1       1.561950000000       2.976160000000      12.720830000000       0.147519491773       0.000109937040      -0.000186335704
27 1      -0.780980000000       1.623470000000      12.720830000000      -0.073649927397      -0.127760647119      -0.000187446954
28 1      -1.796450000000       3.111550000000      10.407940000000       0.073711087458      -0.127745143944       0.000039912274
29 1       0.780980000000       1.352690000000      10.407940000000       0.073680606567       0.127780635424       0.000087796638
30 1       3.592910000000       0.000000000000      10.407940000000      -0.147507679417      -0.000046845685       0.000078770841
