ITEM: TIMESTEP
0
ITEM: NUMBER OF ATOMS
30
ITEM: BOX BOUNDS xy xz yz pp pp pp
-2.5014755069999999e+00 5.0029510149999998e+00 -2.5014755069999999e+00
0.0000000000000000e+00 4.3326830860000003e+00 0.0000000000000000e+00
0.0000000000000000e+00 1.3468302289000000e+01 0.0000000000000000e+00
ITEM: ATOMS id type c_pe_atom
1 2      -2.911181535438
2 2      -2.910906869380
3 2      -2.911213857058
4 2      -2.911106664725
5 2      -2.910939165325
6 2      -2.911115260341
7 2      -2.910997073519
8 2      -2.911048899665
9 2      -2.911063027087
10 2      -2.911107727893
11 2      -2.911063494106
12 2      -2.910892785309
13 1      -7.945009363372
14 1      -7.944981219649
15 1      -7.944987372437
16 1      -7.945109051924
17 1      -7.945070763455
18 1      -7.945157249405
19 1      -7.945090923189
20 1      -7.945170076257
21 1      -7.945112915993
22 1      -7.945216588825
23 1      -7.945132900243
24 1      -7.945048456210
25 1      -7.945199630140
26 1      -7.945210404097
27 1      -7.945170872889
28 1      -7.944979389657
29 1      -7.945130125005
30 1      -7.945078889927
