ITEM: TIMESTEP
0
ITEM: NUMBER OF ATOMS
20
ITEM: BOX BOUNDS xy xz yz pp pp pp
-1.3958235136890000e+00 1.2510288901369000e+01 0.0000000000000000e+00
0.0000000000000000e+00 3.0980638169999999e+00 -1.3958235136890000e+00
0.0000000000000000e+00 5.7354974455510002e+00 0.0000000000000000e+00
ITEM: ATOMS id type x y z fx fy fz
1 2       1.543629475095       1.549030000000       1.798868132360      -0.116125595491       0.000026420243      -0.168571442072
2 2       3.315690328856       0.000000000000       3.936633072377       0.116167044787      -0.000026420135       0.168451853071
3 2       0.014590827511       0.000000000000       4.557324725873      -0.020177025318      -0.000026245720       0.000793478670
4 2       4.844728976440       1.549030000000       1.178176478863       0.020192648342       0.000026245723      -0.000907506254
5 2       7.798774640227       0.000000000000       1.798864300120      -0.116167044787      -0.000026420135      -0.168451853081
6 2       9.570835493989       1.549030000000       3.936629240136       0.116125595486       0.000026420243       0.168571442071
7 2       6.269735992644       1.549030000000       4.557320893633      -0.020192648359       0.000026245723       0.000907506267
8 2      11.099874141572       0.000000000000       1.178172646623       0.020177025328      -0.000026245720      -0.000793478671
9 1       5.844405356965       0.000000000000       1.470627735518       0.034132439165      -0.000032425412       0.049374109683
10 1      -0.985085553015       1.549030000000       4.264873469218      -0.034124738065       0.000032425410      -0.049413979387
11 1       1.384780094491       0.000000000000       3.237330390183      -0.037854859420      -0.000011438832       0.054733412425
12 1       3.474542074099       1.549030000000       2.498161098151       0.037788444256       0.000011438775      -0.054640133483
13 1       2.970184036485       1.549030000000       5.110164328259      -0.003980002329       0.000026040071      -0.013328669519
14 1       1.889138132105       0.000000000000       0.625327160075       0.003985432881      -0.000026040123       0.013489031203
15 1      12.099550522098       1.549030000000       1.470623903278       0.034124738077       0.000032425410       0.049413979389
16 1       5.270059612118       0.000000000000       4.264869636978      -0.034132439154      -0.000032425412      -0.049374109679
17 1       7.639922894984       1.549030000000       3.237336274345      -0.037788444248       0.000011438775       0.054640133485
18 1       9.729684874593       0.000000000000       2.498166982313       0.037854859406      -0.000011438832      -0.054733412416
19 1       9.225326836979       0.000000000000       5.110170212421      -0.003985432887      -0.000026040123      -0.013489031209
20 1       8.144280932598       1.549030000000       0.625333044238       0.003980002329       0.000026040071       0.013328669507
